      36
best bond-forming step 202
   C        -2.1450000000         1.1130000000        -0.1730000000
   C        -4.2590000000         1.8410000000         0.8110000000
   H        -4.8380000000         0.9320000000         1.0940000000
   C        -4.3050000000         2.0670000000        -0.6780000000
   H        -5.2410000000         1.6500000000        -1.0760000000
   B        -0.8870000000        -0.1890000000         0.0670000000
   N        -3.1270000000         1.3500000000        -1.2060000000
   N        -2.7680000000         1.6380000000         0.9740000000
   C        -3.5650000000         1.0560000000        -2.6710000000
   H        -2.6640000000         0.9650000000        -3.2870000000
   H        -4.1120000000         0.1000000000        -2.6990000000
   H        -4.2120000000         1.8700000000        -3.0560000000
   C        -2.3750000000         1.4650000000         2.4020000000
   H        -1.3790000000         1.0290000000         2.5270000000
   H        -2.4000000000         2.4270000000         2.9440000000
   H        -3.0990000000         0.7910000000         2.8900000000
   N        -0.6150000000        -0.3860000000        -2.1370000000
   N         0.1180000000         0.4500000000        -2.3750000000
   H        -4.2560000000         3.1380000000        -0.9770000000
   H        -4.5930000000         2.7040000000         1.4060000000
   C        -1.4800000000        -1.8500000000         0.3700000000
   C        -0.8710000000        -2.9640000000        -0.6970000000
   C        -2.9830000000        -1.7790000000         0.9500000000
   C        -0.6870000000        -2.2430000000         1.6680000000
   H        -3.1940000000        -2.6970000000         1.5290000000
   H        -2.9450000000        -0.9630000000         1.6770000000
   H        -3.8430000000        -1.6010000000         0.2860000000
   H         0.3900000000        -2.3410000000         1.4890000000
   H        -0.8380000000        -1.5240000000         2.4880000000
   H        -1.0550000000        -3.2240000000         2.0420000000
   H         0.2010000000        -2.7390000000        -0.7270000000
   H        -0.9600000000        -3.9660000000        -0.2310000000
   H        -1.2230000000        -2.9990000000        -1.7410000000
   C         1.2520000000         0.3720000000        -0.6410000000
   O         0.2540000000         0.2880000000         0.2330000000
   O         2.4240000000         0.3900000000        -0.3030000000
