      36
best product-like step 103
   C        -2.3340000000         0.9080000000        -0.1410000000
   C        -4.3540000000         1.9250000000         0.5630000000
   H        -5.2770000000         1.3190000000         0.5660000000
   C        -3.9400000000         2.3790000000        -0.8440000000
   H        -4.8070000000         2.5390000000        -1.4950000000
   B        -1.1830000000        -0.0490000000        -0.0740000000
   N        -3.0890000000         1.2720000000        -1.2490000000
   N        -3.1810000000         1.1270000000         0.9350000000
   C        -2.8380000000         0.9900000000        -2.6340000000
   H        -2.0020000000         1.5530000000        -3.0780000000
   H        -2.6350000000        -0.0810000000        -2.7790000000
   H        -3.7500000000         1.2250000000        -3.1960000000
   C        -2.7760000000         1.0180000000         2.2980000000
   H        -1.8620000000         0.4160000000         2.3660000000
   H        -2.5480000000         2.0030000000         2.7290000000
   H        -3.5440000000         0.5460000000         2.9290000000
   N        -0.2530000000         0.1170000000        -1.1770000000
   N         0.0980000000         0.3030000000        -2.2530000000
   H        -3.3490000000         3.3100000000        -0.8040000000
   H        -4.5010000000         2.7910000000         1.2210000000
   C        -1.6430000000        -1.5630000000         0.6150000000
   C        -1.5120000000        -2.5280000000        -0.5920000000
   C        -3.2100000000        -1.6760000000         0.8370000000
   C        -0.8340000000        -2.0790000000         1.8810000000
   H        -3.4630000000        -2.7440000000         0.8520000000
   H        -3.5820000000        -1.2500000000         1.7760000000
   H        -3.7690000000        -1.2310000000         0.0080000000
   H         0.2490000000        -2.1490000000         1.6980000000
   H        -0.9720000000        -1.4280000000         2.7560000000
   H        -1.2040000000        -3.0750000000         2.1660000000
   H        -0.4840000000        -2.6490000000        -0.9730000000
   H        -1.8850000000        -3.5290000000        -0.3300000000
   H        -2.1220000000        -2.1690000000        -1.4270000000
   C         1.6230000000         0.1540000000        -0.4760000000
   O         0.8360000000         0.1310000000         0.4610000000
   O         2.4500000000         0.2010000000        -1.3380000000
