      36
final step 1000
   C        -3.6300000000         0.3650000000         0.4310000000
   C        -3.5090000000         2.6040000000         1.1150000000
   H        -2.7110000000         2.8490000000         1.8370000000
   C        -4.6220000000         1.8890000000         1.9070000000
   H        -4.7300000000         1.9910000000         2.9810000000
   B        -3.6550000000        -1.2300000000        -0.3330000000
   N        -4.3520000000         0.4250000000         1.5740000000
   N        -3.0390000000         1.5610000000         0.2010000000
   C        -5.0930000000        -0.5260000000         2.3450000000
   H        -6.0950000000        -0.7540000000         1.9450000000
   H        -4.3340000000        -1.3250000000         2.4750000000
   H        -5.3050000000        -0.1170000000         3.3470000000
   C        -1.9320000000         2.0510000000        -0.6450000000
   H        -1.3100000000         2.7500000000        -0.0560000000
   H        -1.2590000000         1.2180000000        -0.9220000000
   H        -2.2480000000         2.5060000000        -1.6030000000
   N         5.3560000000         2.0530000000        -1.4450000000
   N         5.8910000000         1.5000000000        -2.2360000000
   H        -5.6290000000         2.0100000000         1.4980000000
   H        -3.6210000000         3.4840000000         0.4920000000
   C        -2.4300000000        -2.0910000000         0.0160000000
   C        -1.4240000000        -2.5460000000        -1.0440000000
   C        -2.9920000000        -3.5500000000         0.4170000000
   C        -1.6500000000        -1.3550000000         1.1860000000
   H        -2.2780000000        -3.9850000000         1.1290000000
   H        -3.9490000000        -3.4590000000         0.9380000000
   H        -3.2020000000        -4.2390000000        -0.4030000000
   H        -0.8840000000        -0.7240000000         0.7300000000
   H        -2.3180000000        -0.7480000000         1.7710000000
   H        -1.1130000000        -2.0900000000         1.8010000000
   H        -1.1970000000        -1.6420000000        -1.6220000000
   H        -0.5290000000        -2.9760000000        -0.6000000000
   H        -1.8090000000        -3.2720000000        -1.7740000000
   C         2.7570000000         1.9120000000        -2.6620000000
   O        -4.6900000000        -1.2670000000        -0.9910000000
   O         2.8680000000         0.8480000000        -3.0550000000
