      36
best TS-like step 105
   C        -2.3280000000         0.9070000000        -0.1400000000
   C        -4.3540000000         1.9190000000         0.5640000000
   H        -5.2700000000         1.2950000000         0.5720000000
   C        -3.9470000000         2.3710000000        -0.8430000000
   H        -4.8120000000         2.5170000000        -1.5060000000
   B        -1.1920000000        -0.0570000000        -0.0820000000
   N        -3.0810000000         1.2690000000        -1.2420000000
   N        -3.1660000000         1.1360000000         0.9360000000
   C        -2.8350000000         0.9850000000        -2.6250000000
   H        -2.0010000000         1.5530000000        -3.0780000000
   H        -2.6260000000        -0.0890000000        -2.7710000000
   H        -3.7560000000         1.2050000000        -3.1880000000
   C        -2.7690000000         1.0240000000         2.3010000000
   H        -1.8550000000         0.4230000000         2.3800000000
   H        -2.5430000000         2.0110000000         2.7370000000
   H        -3.5440000000         0.5470000000         2.9270000000
   N        -0.2520000000         0.1250000000        -1.1780000000
   N         0.0980000000         0.3060000000        -2.2560000000
   H        -3.3630000000         3.3130000000        -0.8020000000
   H        -4.5090000000         2.7830000000         1.2260000000
   C        -1.6280000000        -1.5570000000         0.6200000000
   C        -1.5040000000        -2.5250000000        -0.5860000000
   C        -3.1930000000        -1.6670000000         0.8360000000
   C        -0.8340000000        -2.0950000000         1.8860000000
   H        -3.4450000000        -2.7390000000         0.8380000000
   H        -3.5740000000        -1.2520000000         1.7790000000
   H        -3.7540000000        -1.2160000000         0.0070000000
   H         0.2520000000        -2.1830000000         1.7120000000
   H        -0.9680000000        -1.4530000000         2.7720000000
   H        -1.2250000000        -3.0940000000         2.1530000000
   H        -0.4750000000        -2.6590000000        -0.9650000000
   H        -1.8920000000        -3.5240000000        -0.3250000000
   H        -2.1080000000        -2.1580000000        -1.4250000000
   C         1.6040000000         0.1570000000        -0.4850000000
   O         0.7880000000         0.1330000000         0.4230000000
   O         2.4580000000         0.2050000000        -1.3180000000
