      36
best bond-forming step 186
   C        -2.5390000000         0.6970000000        -0.2290000000
   C        -4.2470000000         2.0990000000         0.3690000000
   H        -5.1280000000         1.4470000000         0.4590000000
   C        -3.9140000000         2.3430000000        -1.1070000000
   H        -4.7800000000         2.3170000000        -1.7720000000
   B        -1.5150000000        -0.4450000000        -0.2470000000
   N        -2.9880000000         1.2370000000        -1.4250000000
   N        -3.0400000000         1.4040000000         0.8400000000
   C        -2.8360000000         0.7570000000        -2.8240000000
   H        -2.2170000000         1.4500000000        -3.3930000000
   H        -2.3710000000        -0.2240000000        -2.8430000000
   H        -3.8280000000         0.7150000000        -3.2720000000
   C        -2.6150000000         1.4050000000         2.2610000000
   H        -1.7110000000         0.7990000000         2.3900000000
   H        -2.4030000000         2.4310000000         2.5630000000
   H        -3.4170000000         1.0240000000         2.8950000000
   N        -0.7070000000        -0.0130000000        -1.4100000000
   N         0.3040000000         0.4350000000        -1.8650000000
   H        -3.4180000000         3.3160000000        -1.2120000000
   H        -4.4220000000         2.9980000000         0.9580000000
   C        -1.6240000000        -1.9390000000         0.5180000000
   C        -1.3090000000        -3.0970000000        -0.5020000000
   C        -3.1170000000        -1.8170000000         0.9420000000
   C        -0.8980000000        -2.4160000000         1.8480000000
   H        -3.5210000000        -2.7450000000         1.3490000000
   H        -3.2150000000        -1.0590000000         1.7250000000
   H        -3.7470000000        -1.5090000000         0.1080000000
   H         0.1570000000        -2.6340000000         1.6790000000
   H        -0.9860000000        -1.6990000000         2.6660000000
   H        -1.4050000000        -3.3340000000         2.1620000000
   H        -0.2290000000        -3.1510000000        -0.6700000000
   H        -1.6410000000        -4.0580000000        -0.0940000000
   H        -1.7870000000        -2.9570000000        -1.4740000000
   C         1.5310000000         0.6190000000        -0.3060000000
   O         0.5360000000         0.4670000000         0.3650000000
   O         2.7030000000         0.7220000000        -0.5730000000
