      36
best product-like step 362
   C        -2.6630000000         0.5570000000        -0.4420000000
   C        -3.6860000000         2.4930000000         0.2850000000
   H        -4.5540000000         2.3100000000         0.9610000000
   C        -4.0940000000         2.2580000000        -1.1780000000
   H        -5.1760000000         2.3000000000        -1.3490000000
   B        -1.5790000000        -0.5440000000        -0.4700000000
   N        -3.5630000000         0.9000000000        -1.3990000000
   N        -2.6690000000         1.4880000000         0.5090000000
   C        -3.4170000000         0.4420000000        -2.7470000000
   H        -2.5980000000         0.9630000000        -3.2670000000
   H        -3.2040000000        -0.6360000000        -2.7720000000
   H        -4.3630000000         0.5960000000        -3.2660000000
   C        -2.2180000000         1.2870000000         1.8760000000
   H        -1.6310000000         0.3790000000         1.9340000000
   H        -1.5630000000         2.1110000000         2.1560000000
   H        -3.1110000000         1.2300000000         2.5200000000
   N        -0.4690000000        -0.3450000000        -1.3440000000
   N         0.6130000000        -0.5800000000        -1.7030000000
   H        -3.5780000000         2.9900000000        -1.8410000000
   H        -3.2920000000         3.4910000000         0.4940000000
   C        -1.5830000000        -2.0600000000         0.1440000000
   C        -0.9600000000        -3.2040000000        -0.7470000000
   C        -2.8690000000        -2.5570000000         0.8280000000
   C        -0.5960000000        -1.8240000000         1.2980000000
   H        -2.6210000000        -3.5130000000         1.3040000000
   H        -3.2240000000        -1.8940000000         1.6340000000
   H        -3.7030000000        -2.7270000000         0.1420000000
   H         0.2960000000        -1.2540000000         1.0140000000
   H        -1.0310000000        -1.3020000000         2.1550000000
   H        -0.2170000000        -2.7900000000         1.6760000000
   H        -0.1200000000        -2.8180000000        -1.3420000000
   H        -0.5790000000        -4.0150000000        -0.1070000000
   H        -1.6920000000        -3.6410000000        -1.4330000000
   C         0.9310000000         1.2300000000         0.3430000000
   O         0.3790000000         1.7640000000         1.2430000000
   O         2.0320000000         1.0000000000        -0.0200000000
