      36
best TS-like step 140
   C        -2.5370000000         0.6800000000        -0.3060000000
   C        -4.2960000000         2.0810000000         0.3580000000
   H        -5.2300000000         1.5050000000         0.3110000000
   C        -3.8640000000         2.4870000000        -1.0580000000
   H        -4.6930000000         2.6040000000        -1.7590000000
   B        -1.4120000000        -0.3920000000        -0.2260000000
   N        -3.0890000000         1.2950000000        -1.3940000000
   N        -3.1680000000         1.2260000000         0.7670000000
   C        -2.8430000000         0.9060000000        -2.7450000000
   H        -2.0440000000         1.4990000000        -3.2010000000
   H        -2.5450000000        -0.1380000000        -2.7610000000
   H        -3.7550000000         1.0360000000        -3.3280000000
   C        -2.7230000000         1.1780000000         2.1190000000
   H        -1.8210000000         0.5670000000         2.1870000000
   H        -2.4960000000         2.1830000000         2.4910000000
   H        -3.4940000000         0.7470000000         2.7600000000
   N        -0.4690000000         0.0190000000        -1.1770000000
   N         0.1450000000         0.4950000000        -2.0290000000
   H        -3.2490000000         3.4010000000        -1.0770000000
   H        -4.4270000000         2.9040000000         1.0610000000
   C        -1.6650000000        -1.7580000000         0.5750000000
   C        -1.5410000000        -2.9070000000        -0.4640000000
   C        -3.1620000000        -1.7940000000         0.9170000000
   C        -0.9960000000        -2.3010000000         1.8600000000
   H        -3.4400000000        -2.8410000000         1.0430000000
   H        -3.4270000000        -1.2950000000         1.8480000000
   H        -3.7920000000        -1.4010000000         0.1200000000
   H         0.0860000000        -2.3830000000         1.7690000000
   H        -1.2460000000        -1.7430000000         2.7620000000
   H        -1.3960000000        -3.3150000000         1.9960000000
   H        -0.5140000000        -3.0740000000        -0.7950000000
   H        -1.8980000000        -3.8410000000        -0.0130000000
   H        -2.1480000000        -2.7230000000        -1.3580000000
   C         1.7760000000         0.4360000000        -0.1770000000
   O         1.0510000000         0.3020000000         0.7630000000
   O         2.5510000000         0.5720000000        -1.0800000000
