      36
final step 1000
   C        -2.3460000000         0.3430000000        -0.3350000000
   C        -4.5610000000         1.1320000000        -0.1500000000
   H        -5.4280000000         0.4850000000         0.0250000000
   C        -4.1060000000         1.2230000000        -1.6570000000
   H        -4.6370000000         0.4710000000        -2.2790000000
   B        -1.1210000000        -0.5850000000         0.0660000000
   N        -2.6310000000         0.9340000000        -1.5490000000
   N        -3.3670000000         0.6420000000         0.5380000000
   C        -1.7440000000         0.8090000000        -2.7460000000
   H        -1.9380000000        -0.1540000000        -3.2500000000
   H        -1.9280000000         1.6680000000        -3.4060000000
   H        -0.6750000000         0.8010000000        -2.4710000000
   C        -3.4000000000         0.5080000000         2.0340000000
   H        -2.3950000000         0.2200000000         2.3590000000
   H        -3.7010000000         1.4740000000         2.4380000000
   H        -4.1030000000        -0.2760000000         2.3570000000
   N         0.1580000000        -0.3860000000        -0.5890000000
   N         1.1470000000         0.2400000000        -0.6920000000
   H        -4.2360000000         2.2190000000        -2.0860000000
   H        -4.7930000000         2.1600000000         0.1830000000
   C        -1.2640000000        -2.0810000000         0.6950000000
   C        -0.8820000000        -3.0450000000        -0.4230000000
   C        -2.6950000000        -2.4710000000         1.1320000000
   C        -0.3000000000        -2.1430000000         1.9520000000
   H        -2.8130000000        -3.5620000000         1.1710000000
   H        -2.8660000000        -2.0730000000         2.1370000000
   H        -3.5100000000        -2.0890000000         0.4900000000
   H         0.6920000000        -2.5420000000         1.6900000000
   H        -0.1590000000        -1.1360000000         2.3710000000
   H        -0.7240000000        -2.7640000000         2.7460000000
   H         0.1990000000        -3.0750000000        -0.6130000000
   H        -1.1940000000        -4.0600000000        -0.1430000000
   H        -1.3870000000        -2.8160000000        -1.3720000000
   C         0.2830000000         2.1960000000        -0.6610000000
   O        -0.4780000000         2.0730000000         0.2490000000
   O         1.2300000000         2.7920000000        -1.0740000000
