      36
best bond-forming step 200
   C        -2.4860000000         0.8600000000        -0.4070000000
   C        -3.8180000000         2.5010000000         0.6530000000
   H        -4.8640000000         2.1620000000         0.5930000000
   C        -3.3080000000         3.0530000000        -0.6680000000
   H        -4.0290000000         3.6510000000        -1.2370000000
   B        -1.5860000000        -0.4270000000        -0.6040000000
   N        -2.9940000000         1.7780000000        -1.3480000000
   N        -2.8940000000         1.3660000000         0.8230000000
   C        -3.0590000000         1.6450000000        -2.8010000000
   H        -2.1270000000         1.9500000000        -3.3080000000
   H        -3.2820000000         0.6090000000        -3.0830000000
   H        -3.8820000000         2.2780000000        -3.1610000000
   C        -2.4330000000         1.1700000000         2.1850000000
   H        -1.7760000000         0.3090000000         2.2900000000
   H        -1.8680000000         2.0530000000         2.5300000000
   H        -3.3070000000         1.0310000000         2.8390000000
   N        -1.0390000000        -0.4020000000        -1.9290000000
   N        -0.5920000000        -0.3300000000        -2.9780000000
   H        -2.3920000000         3.6480000000        -0.5040000000
   H        -3.7090000000         3.2040000000         1.4900000000
   C        -1.3380000000        -1.8330000000         0.3190000000
   C        -0.8670000000        -2.9290000000        -0.6750000000
   C        -2.7460000000        -2.1370000000         0.8840000000
   C        -0.4120000000        -2.0510000000         1.5840000000
   H        -2.7600000000        -3.1660000000         1.2800000000
   H        -2.9830000000        -1.4710000000         1.7250000000
   H        -3.5480000000        -2.0460000000         0.1390000000
   H         0.6430000000        -2.2490000000         1.3290000000
   H        -0.4340000000        -1.2670000000         2.3450000000
   H        -0.7740000000        -2.9720000000         2.0690000000
   H         0.1300000000        -2.6990000000        -1.0870000000
   H        -0.7740000000        -3.8920000000        -0.1470000000
   H        -1.5590000000        -3.0780000000        -1.5170000000
   C         1.0500000000         0.0740000000         0.4580000000
   O         0.5260000000         0.3850000000         1.4520000000
   O         1.6700000000        -0.2260000000        -0.4860000000
