      36
best TS-like step 145
   C        -2.5350000000         0.8480000000        -0.2860000000
   C        -4.0570000000         2.4500000000         0.4860000000
   H        -5.0920000000         2.0960000000         0.3720000000
   C        -3.4800000000         2.8970000000        -0.8470000000
   H        -4.2490000000         3.2900000000        -1.5140000000
   B        -1.6030000000        -0.3670000000        -0.4440000000
   N        -2.9360000000         1.6570000000        -1.3510000000
   N        -3.1700000000         1.3370000000         0.8500000000
   C        -2.8730000000         1.5880000000        -2.8060000000
   H        -1.9760000000         2.0720000000        -3.2140000000
   H        -2.9260000000         0.5740000000        -3.1960000000
   H        -3.7390000000         2.1470000000        -3.1630000000
   C        -2.7490000000         1.1710000000         2.2260000000
   H        -2.0360000000         0.3490000000         2.3000000000
   H        -2.2580000000         2.0810000000         2.6020000000
   H        -3.6090000000         0.9510000000         2.8690000000
   N        -1.0720000000        -0.2390000000        -1.7760000000
   N        -0.6100000000         0.0290000000        -2.8030000000
   H        -2.6970000000         3.6680000000        -0.7290000000
   H        -4.0340000000         3.2420000000         1.2380000000
   C        -1.5020000000        -1.7930000000         0.4030000000
   C        -1.1250000000        -2.8780000000        -0.6230000000
   C        -2.8950000000        -2.1520000000         0.9620000000
   C        -0.5150000000        -1.9730000000         1.5880000000
   H        -2.8680000000        -3.1810000000         1.3420000000
   H        -3.1950000000        -1.5120000000         1.7950000000
   H        -3.6690000000        -2.0990000000         0.1920000000
   H         0.5230000000        -2.0560000000         1.2640000000
   H        -0.5620000000        -1.2010000000         2.3590000000
   H        -0.7500000000        -2.9290000000         2.0740000000
   H        -0.1170000000        -2.7300000000        -1.0240000000
   H        -1.1330000000        -3.8630000000        -0.1370000000
   H        -1.8230000000        -2.9180000000        -1.4650000000
   C         1.5650000000        -0.0150000000         0.3260000000
   O         1.3660000000         0.1410000000         1.4660000000
   O         1.8230000000        -0.1840000000        -0.8010000000
