      36
best bond-forming step 200
   C        -2.6300000000         0.6700000000        -0.3030000000
   C        -4.2930000000         2.2190000000         0.3830000000
   H        -5.2520000000         1.6700000000         0.5250000000
   C        -3.9620000000         2.4390000000        -1.1140000000
   H        -4.8470000000         2.5210000000        -1.7610000000
   B        -1.5800000000        -0.5150000000        -0.3290000000
   N        -3.1620000000         1.2480000000        -1.4630000000
   N        -3.1250000000         1.3830000000         0.7950000000
   C        -3.1820000000         0.7950000000        -2.8810000000
   H        -2.6330000000         1.5250000000        -3.5120000000
   H        -2.7200000000        -0.1870000000        -3.0030000000
   H        -4.2280000000         0.7390000000        -3.2470000000
   C        -2.6060000000         1.4650000000         2.1770000000
   H        -1.7020000000         0.8660000000         2.3030000000
   H        -2.3420000000         2.5120000000         2.4410000000
   H        -3.3560000000         1.0920000000         2.9020000000
   N        -0.6400000000        -0.0460000000        -1.2860000000
   N         0.1750000000         0.3170000000        -2.0150000000
   H        -3.3600000000         3.3680000000        -1.2430000000
   H        -4.3410000000         3.1650000000         0.9450000000
   C        -1.7220000000        -2.0270000000         0.4570000000
   C        -1.3960000000        -3.2570000000        -0.5280000000
   C        -3.2200000000        -1.9280000000         0.8700000000
   C        -0.8940000000        -2.3350000000         1.7650000000
   H        -3.5760000000        -2.8490000000         1.3790000000
   H        -3.3870000000        -1.0860000000         1.5490000000
   H        -3.8660000000        -1.7750000000        -0.0140000000
   H         0.1550000000        -2.5400000000         1.5090000000
   H        -0.9170000000        -1.5410000000         2.5270000000
   H        -1.3190000000        -3.2530000000         2.2320000000
   H        -0.3100000000        -3.3130000000        -0.6880000000
   H        -1.7080000000        -4.2220000000        -0.0790000000
   H        -1.8610000000        -3.1680000000        -1.5280000000
   C         1.9530000000         0.6560000000         0.0280000000
   O         1.1810000000         0.4710000000         0.8940000000
   O         2.7630000000         0.8450000000        -0.8000000000
