      36
final step 200
   C        -2.5290000000         0.8590000000        -0.1480000000
   C        -4.3620000000         2.0200000000         0.7240000000
   H        -5.0960000000         1.2040000000         0.9180000000
   C        -4.2770000000         2.3260000000        -0.7980000000
   H        -5.2310000000         2.1460000000        -1.3170000000
   B        -1.4990000000        -0.3390000000        -0.2530000000
   N        -3.2360000000         1.3730000000        -1.2490000000
   N        -2.9760000000         1.5420000000         0.9920000000
   C        -3.3020000000         0.9390000000        -2.6760000000
   H        -2.7900000000         1.6840000000        -3.3210000000
   H        -2.8480000000        -0.0410000000        -2.8520000000
   H        -4.3620000000         0.8780000000        -2.9880000000
   C        -2.5140000000         1.4190000000         2.3840000000
   H        -1.5030000000         1.0100000000         2.4310000000
   H        -2.5000000000         2.4150000000         2.8690000000
   H        -3.1800000000         0.7590000000         2.9770000000
   N        -0.7170000000         0.0010000000        -1.3840000000
   N         0.0750000000         0.2790000000        -2.1680000000
   H        -3.9740000000         3.3790000000        -0.9900000000
   H        -4.6260000000         2.8930000000         1.3410000000
   C        -1.5230000000        -1.8930000000         0.4630000000
   C        -1.1170000000        -2.9930000000        -0.6350000000
   C        -3.0250000000        -1.8380000000         0.8970000000
   C        -0.7220000000        -2.2930000000         1.7770000000
   H        -3.3530000000        -2.7520000000         1.4350000000
   H        -3.1710000000        -0.9990000000         1.5840000000
   H        -3.7100000000        -1.6880000000         0.0440000000
   H         0.3460000000        -2.4500000000         1.5670000000
   H        -0.8080000000        -1.5620000000         2.5980000000
   H        -1.1450000000        -3.2510000000         2.1490000000
   H        -0.0260000000        -2.9770000000        -0.7680000000
   H        -1.3930000000        -4.0160000000        -0.3040000000
   H        -1.5640000000        -2.8230000000        -1.6330000000
   C         1.8020000000         0.3820000000        -0.4260000000
   O         0.8600000000         0.2970000000         0.2710000000
   O         2.7920000000         0.4540000000        -1.0590000000
