      36
best product-like step 163
   C        -2.6040000000         0.8220000000        -0.1820000000
   C        -4.4010000000         2.0000000000         0.6300000000
   H        -5.1900000000         1.2330000000         0.6960000000
   C        -4.1820000000         2.4270000000        -0.8180000000
   H        -5.1260000000         2.3980000000        -1.3650000000
   B        -1.4250000000        -0.2330000000        -0.2200000000
   N        -3.2470000000         1.3940000000        -1.2660000000
   N        -3.1090000000         1.4210000000         0.9510000000
   C        -3.2330000000         1.0160000000        -2.6720000000
   H        -2.5440000000         1.6120000000        -3.2710000000
   H        -2.9420000000        -0.0270000000        -2.7750000000
   H        -4.2470000000         1.0870000000        -3.0660000000
   C        -2.6420000000         1.2740000000         2.3230000000
   H        -1.6360000000         0.8370000000         2.3020000000
   H        -2.5540000000         2.2610000000         2.7880000000
   H        -3.2760000000         0.6280000000         2.9360000000
   N        -0.6740000000         0.0380000000        -1.4010000000
   N        -0.0310000000         0.2990000000        -2.3210000000
   H        -3.7350000000         3.4280000000        -0.9080000000
   H        -4.6690000000         2.8470000000         1.2620000000
   C        -1.5470000000        -1.7740000000         0.4750000000
   C        -1.3300000000        -2.9360000000        -0.5010000000
   C        -3.0230000000        -1.7950000000         0.8620000000
   C        -0.8530000000        -2.2950000000         1.7570000000
   H        -3.3540000000        -2.8000000000         1.1430000000
   H        -3.1860000000        -1.1560000000         1.7320000000
   H        -3.6880000000        -1.4450000000         0.0720000000
   H         0.2320000000        -2.3910000000         1.6970000000
   H        -1.0900000000        -1.6810000000         2.6310000000
   H        -1.2630000000        -3.2920000000         1.9530000000
   H        -0.2780000000        -3.0800000000        -0.7610000000
   H        -1.6860000000        -3.8560000000        -0.0240000000
   H        -1.8970000000        -2.8290000000        -1.4310000000
   C         1.9940000000         0.3150000000        -0.3170000000
   O         1.3560000000         0.2520000000         0.6610000000
   O         2.6900000000         0.3720000000        -1.2600000000
