       5
 i =       63, E =       -70.2616668305
 Ca         0.4531392999        0.5730591285       -0.4615354358
  O        -1.4003919158        1.4042598086       -0.2820830028
  H        -2.2315232488        1.8373641880       -0.1358990520
  O         2.3883929955        0.1415991288       -0.0496700244
  H         3.2878867695       -0.0095413516        0.2124157400
