       8
 i =       45, E =       -45.9820053381
  O         1.4468529385        0.6097328486        0.0474428730
  O        -1.3563630092        0.5198552778        0.0469992153
  C         0.7561108066       -0.5926468660       -0.0984966382
  C        -0.7339072793       -0.5019770729       -0.0831579964
  H         1.0359313560       -1.2996757361        0.6890093423
  H         1.0287990983       -1.0844875789       -1.0380208706
  H        -1.2438741350       -1.4735436948       -0.2025383612
  H         0.7790339773        1.2999043694        0.1237666126
