       3
 i =        7, E =       -17.2963600724
  O         0.8436560543        0.4683564190       -0.0001085840
  H        -0.0067926574        0.0320716644       -0.0000001500
  H         1.4805377251       -0.2442418910       -0.0000008496
