      36
final step 1000
   C        -2.3110000000         0.2640000000        -0.2700000000
   C        -4.2970000000         1.5170000000        -0.1280000000
   H        -5.2370000000         1.0450000000         0.1670000000
   C        -3.9450000000         1.2750000000        -1.6380000000
   H        -4.6960000000         0.6200000000        -2.1110000000
   B        -1.0910000000        -0.7520000000         0.0100000000
   N        -2.6340000000         0.6130000000        -1.5760000000
   N        -3.1680000000         0.8710000000         0.6250000000
   C        -2.1290000000         0.0480000000        -2.8640000000
   H        -2.7100000000        -0.8420000000        -3.1520000000
   H        -2.2610000000         0.8200000000        -3.6250000000
   H        -1.0530000000        -0.1670000000        -2.8310000000
   C        -2.9000000000         1.1690000000         2.0630000000
   H        -2.4530000000         2.1600000000         2.1870000000
   H        -3.8460000000         1.1160000000         2.6040000000
   H        -2.2100000000         0.4150000000         2.4560000000
   N         0.0910000000        -0.3840000000        -0.6370000000
   N         1.1260000000        -0.0040000000        -0.9990000000
   H        -3.8490000000         2.1770000000        -2.2420000000
   H        -4.3580000000         2.5910000000         0.0930000000
   C        -1.1160000000        -2.2820000000         0.5170000000
   C        -1.4330000000        -3.0130000000        -0.8160000000
   C        -2.4190000000        -2.3610000000         1.4400000000
   C         0.2300000000        -2.8890000000         1.1720000000
   H        -2.4530000000        -3.2970000000         2.0060000000
   H        -2.4630000000        -1.5440000000         2.1650000000
   H        -3.3440000000        -2.3190000000         0.8510000000
   H         0.9540000000        -3.1250000000         0.3790000000
   H         0.7350000000        -2.2250000000         1.8810000000
   H        -0.0090000000        -3.8200000000         1.6900000000
   H        -0.5300000000        -3.0700000000        -1.4400000000
   H        -1.7290000000        -4.0470000000        -0.6040000000
   H        -2.2090000000        -2.5360000000        -1.4240000000
   C         0.0340000000         2.6140000000        -0.0230000000
   O        -0.6210000000         2.5140000000        -0.9860000000
   O         0.5940000000         2.9140000000         0.9550000000
