      36
best bond-forming step 259
   C        -2.6030000000         0.6340000000        -0.2820000000
   C        -4.1190000000         2.3020000000         0.3800000000
   H        -5.0410000000         1.8120000000         0.7070000000
   C        -4.0390000000         2.3380000000        -1.1460000000
   H        -5.0310000000         2.2340000000        -1.6080000000
   B        -1.6290000000        -0.5840000000        -0.2980000000
   N        -3.2320000000         1.1470000000        -1.3710000000
   N        -2.9670000000         1.4710000000         0.7220000000
   C        -3.1960000000         0.5700000000        -2.6670000000
   H        -2.8790000000         1.3260000000        -3.3920000000
   H        -2.4690000000        -0.2460000000        -2.7110000000
   H        -4.1670000000         0.1560000000        -2.9650000000
   C        -2.4600000000         1.5960000000         2.0410000000
   H        -1.5840000000         0.9680000000         2.1820000000
   H        -2.1650000000         2.6320000000         2.2330000000
   H        -3.2190000000         1.2870000000         2.7760000000
   N        -0.5540000000        -0.3550000000        -1.1600000000
   N         0.2610000000         0.1260000000        -1.8450000000
   H        -3.5510000000         3.2320000000        -1.5420000000
   H        -4.0520000000         3.2980000000         0.8360000000
   C        -1.7570000000        -2.0150000000         0.3680000000
   C        -1.3390000000        -3.1230000000        -0.5970000000
   C        -3.2070000000        -2.2310000000         0.7970000000
   C        -0.7650000000        -2.0920000000         1.5340000000
   H        -3.3280000000        -3.1410000000         1.3980000000
   H        -3.5910000000        -1.3830000000         1.3840000000
   H        -3.8650000000        -2.3270000000        -0.0800000000
   H         0.2670000000        -2.2260000000         1.1740000000
   H        -0.7610000000        -1.1840000000         2.1530000000
   H        -0.9860000000        -2.9390000000         2.1900000000
   H        -0.2620000000        -3.0790000000        -0.8160000000
   H        -1.5340000000        -4.0900000000        -0.1180000000
   H        -1.8870000000        -3.1230000000        -1.5450000000
   C         1.7250000000         0.8560000000        -0.0050000000
   O         0.6720000000         0.6900000000         0.4620000000
   O         2.8420000000         1.0400000000        -0.2800000000
