      36
best product-like step 833
   C        -2.4300000000         0.2930000000        -0.1890000000
   C        -3.9970000000         2.0900000000        -0.1670000000
   H        -4.9490000000         1.7000000000         0.2660000000
   C        -3.7830000000         1.6460000000        -1.5830000000
   H        -4.6900000000         1.5690000000        -2.1960000000
   B        -1.2500000000        -0.7760000000        -0.0360000000
   N        -3.2000000000         0.3160000000        -1.3120000000
   N        -2.8100000000         1.4450000000         0.4340000000
   C        -2.7400000000        -0.2520000000        -2.5620000000
   H        -3.4690000000         0.1120000000        -3.2970000000
   H        -1.7510000000         0.1270000000        -2.8880000000
   H        -2.7780000000        -1.3440000000        -2.5870000000
   C        -2.5050000000         1.8450000000         1.7820000000
   H        -3.2890000000         2.5640000000         2.0870000000
   H        -2.4950000000         1.0160000000         2.5110000000
   H        -1.5460000000         2.3600000000         1.8670000000
   N        -0.1520000000        -0.4120000000        -0.8310000000
   N         0.8750000000        -0.0230000000        -1.2220000000
   H        -3.0300000000         2.2740000000        -2.1130000000
   H        -3.9630000000         3.1740000000        -0.0140000000
   C        -1.1990000000        -2.3280000000         0.4080000000
   C        -1.2560000000        -3.0590000000        -0.9850000000
   C        -2.4080000000        -2.9300000000         1.2360000000
   C         0.1630000000        -2.6640000000         1.1850000000
   H        -2.3920000000        -4.0250000000         1.1170000000
   H        -2.3330000000        -2.7240000000         2.3110000000
   H        -3.3740000000        -2.5420000000         0.8680000000
   H         1.0540000000        -2.2250000000         0.7020000000
   H         0.1240000000        -2.2890000000         2.2230000000
   H         0.3200000000        -3.7570000000         1.1970000000
   H        -0.7900000000        -2.5350000000        -1.8220000000
   H        -0.7610000000        -4.0420000000        -0.8900000000
   H        -2.3090000000        -3.2750000000        -1.2390000000
   C         0.1990000000         2.3530000000         0.2320000000
   O        -0.3290000000         2.8000000000        -0.7320000000
   O         0.6930000000         1.8180000000         1.1660000000
