      36
best bond-forming step 157
   C        -2.5390000000         0.6480000000        -0.2420000000
   C        -4.2240000000         1.9920000000         0.3720000000
   H        -5.0690000000         1.2650000000         0.3640000000
   C        -3.8640000000         2.3680000000        -1.0900000000
   H        -4.7790000000         2.3470000000        -1.7000000000
   B        -1.4670000000        -0.4140000000        -0.2480000000
   N        -2.9530000000         1.2860000000        -1.3960000000
   N        -3.0340000000         1.3270000000         0.8290000000
   C        -2.7010000000         0.8050000000        -2.7330000000
   H        -1.9520000000         1.4110000000        -3.2760000000
   H        -2.3300000000        -0.2160000000        -2.6950000000
   H        -3.6360000000         0.7670000000        -3.3230000000
   C        -2.6780000000         1.2590000000         2.2240000000
   H        -1.8030000000         0.6220000000         2.3470000000
   H        -2.3940000000         2.2640000000         2.5960000000
   H        -3.4840000000         0.8490000000         2.8570000000
   N        -0.7260000000        -0.0060000000        -1.4510000000
   N         0.2430000000         0.5330000000        -1.9240000000
   H        -3.3840000000         3.3660000000        -1.2080000000
   H        -4.5090000000         2.8730000000         0.9570000000
   C        -1.5700000000        -1.7980000000         0.5990000000
   C        -1.3910000000        -2.8620000000        -0.4610000000
   C        -3.0620000000        -1.7180000000         0.9590000000
   C        -0.9610000000        -2.4120000000         1.8840000000
   H        -3.4700000000        -2.7330000000         1.1320000000
   H        -3.2040000000        -1.1680000000         1.8900000000
   H        -3.7050000000        -1.2680000000         0.1900000000
   H         0.1060000000        -2.6580000000         1.8400000000
   H        -1.1390000000        -1.8010000000         2.7790000000
   H        -1.5200000000        -3.3610000000         2.0380000000
   H        -0.3340000000        -3.0170000000        -0.7050000000
   H        -1.7920000000        -3.8300000000        -0.0980000000
   H        -1.9150000000        -2.6240000000        -1.4030000000
   C         1.5290000000         0.5320000000        -0.2870000000
   O         0.5430000000         0.4100000000         0.3370000000
   O         2.6290000000         0.5710000000        -0.6860000000
