      36
final step 1000
   C        -2.4520000000         0.1760000000        -0.3210000000
   C        -4.2830000000         1.5490000000        -0.0540000000
   H        -5.2430000000         1.0260000000         0.0570000000
   C        -3.8320000000         1.5540000000        -1.5460000000
   H        -4.6800000000         1.5390000000        -2.2500000000
   B        -1.2100000000        -0.6670000000        -0.0080000000
   N        -2.9560000000         0.3690000000        -1.5760000000
   N        -3.1710000000         0.8140000000         0.6640000000
   C        -2.3140000000         0.1220000000        -2.9510000000
   H        -2.5870000000        -0.8900000000        -3.3090000000
   H        -2.8020000000         0.8340000000        -3.6210000000
   H        -1.2120000000         0.2090000000        -2.9150000000
   C        -3.1030000000         0.4360000000         2.1550000000
   H        -2.5780000000        -0.5250000000         2.1830000000
   H        -2.4320000000         1.0930000000         2.7070000000
   H        -4.0970000000         0.3380000000         2.6120000000
   N        -0.0830000000         0.1330000000         0.1890000000
   N         0.9970000000         0.6400000000         0.4410000000
   H        -3.2290000000         2.4650000000        -1.7250000000
   H        -4.3900000000         2.5490000000         0.3930000000
   C        -1.4330000000        -2.2780000000         0.4650000000
   C        -1.6050000000        -2.9680000000        -0.8750000000
   C        -2.8290000000        -2.5100000000         1.1430000000
   C        -0.2240000000        -2.9020000000         1.3040000000
   H        -3.1720000000        -3.5150000000         0.8270000000
   H        -2.8030000000        -2.4830000000         2.2430000000
   H        -3.6460000000        -1.8310000000         0.8220000000
   H         0.6720000000        -3.0760000000         0.6890000000
   H         0.0570000000        -2.0920000000         1.9990000000
   H        -0.4390000000        -3.7720000000         1.9310000000
   H        -0.6950000000        -2.9820000000        -1.4900000000
   H        -1.9620000000        -4.0040000000        -0.7500000000
   H        -2.3850000000        -2.4320000000        -1.4450000000
   C         0.8530000000         2.3880000000        -0.6320000000
   O         0.1710000000         2.1570000000        -1.6130000000
   O         1.3800000000         3.1390000000         0.1580000000
