      36
best product-like step 317
   C        -2.5640000000         0.7420000000        -0.1650000000
   C        -3.8730000000         2.2660000000         0.9740000000
   H        -4.5950000000         1.8850000000         1.7290000000
   C        -4.3750000000         2.0640000000        -0.4900000000
   H        -5.4510000000         1.8600000000        -0.4850000000
   B        -1.3760000000        -0.2710000000        -0.5180000000
   N        -3.5810000000         0.9790000000        -1.0420000000
   N        -2.6270000000         1.4940000000         0.9890000000
   C        -3.4650000000         0.7470000000        -2.5350000000
   H        -2.5610000000         1.2320000000        -2.9070000000
   H        -3.4120000000        -0.3230000000        -2.7670000000
   H        -4.3570000000         1.1750000000        -2.9910000000
   C        -1.7200000000         1.5830000000         2.1920000000
   H        -0.7070000000         1.3250000000         1.8610000000
   H        -1.7710000000         2.6120000000         2.5580000000
   H        -2.0750000000         0.8790000000         2.9570000000
   N        -0.7350000000        -0.4130000000        -1.8730000000
   N         0.4680000000        -0.2350000000        -1.8690000000
   H        -4.1830000000         2.9720000000        -1.1000000000
   H        -3.7090000000         3.3320000000         1.1750000000
   C        -1.2850000000        -1.8000000000         0.3070000000
   C        -0.9020000000        -2.8490000000        -0.7410000000
   C        -2.7070000000        -2.3630000000         0.5970000000
   C        -0.3760000000        -1.7350000000         1.5760000000
   H        -2.6430000000        -3.4090000000         0.9350000000
   H        -3.2690000000        -1.8090000000         1.3660000000
   H        -3.3100000000        -2.3540000000        -0.3150000000
   H         0.6550000000        -1.4520000000         1.3390000000
   H        -0.7700000000        -0.9960000000         2.2790000000
   H        -0.3610000000        -2.7120000000         2.0880000000
   H        -0.0090000000        -2.6110000000        -1.3240000000
   H        -0.7750000000        -3.8470000000        -0.2890000000
   H        -1.7240000000        -2.9440000000        -1.4560000000
   C         0.9010000000         0.6140000000        -0.5720000000
   O        -0.0620000000         0.6570000000         0.1770000000
   O         2.0250000000         0.9280000000        -0.4140000000
