      36
final step 1000
   C        -3.0170000000         0.3650000000         0.6520000000
   C        -4.2480000000         2.0490000000         1.7080000000
   H        -4.4960000000         1.7080000000         2.7270000000
   C        -5.0660000000         1.4710000000         0.5890000000
   H        -6.1370000000         1.2790000000         0.6860000000
   B        -1.6610000000        -0.5550000000         0.2260000000
   N        -4.3610000000         0.1900000000         0.3960000000
   N        -2.8950000000         1.5170000000         1.3550000000
   C        -5.0260000000        -0.9670000000        -0.1580000000
   H        -6.0820000000        -0.6920000000        -0.2610000000
   H        -4.5890000000        -1.2920000000        -1.1120000000
   H        -5.0260000000        -1.8140000000         0.5430000000
   C        -1.6370000000         2.1690000000         1.7710000000
   H        -0.8740000000         1.3950000000         1.9570000000
   H        -1.2470000000         2.7750000000         0.9530000000
   H        -1.8180000000         2.7260000000         2.6940000000
   N         2.3320000000         1.0660000000        -6.0790000000
   N         1.4150000000         1.0860000000        -5.4270000000
   H        -4.9240000000         2.1040000000        -0.3090000000
   H        -4.2350000000         3.1450000000         1.6560000000
   C        -1.2650000000        -1.8560000000         1.2480000000
   C         0.1440000000        -2.4460000000         1.0300000000
   C        -2.1780000000        -3.1470000000         1.3400000000
   C        -1.2730000000        -1.3320000000         2.7100000000
   H        -1.6900000000        -3.8370000000         2.0320000000
   H        -3.1960000000        -2.9420000000         1.6690000000
   H        -2.2660000000        -3.6650000000         0.3810000000
   H        -0.5320000000        -0.5440000000         2.9080000000
   H        -2.2400000000        -0.8790000000         2.9510000000
   H        -1.1160000000        -2.1010000000         3.4740000000
   H         0.9510000000        -1.7180000000         0.8830000000
   H         0.4100000000        -3.1420000000         1.8310000000
   H         0.0920000000        -3.0350000000         0.1060000000
   C         1.7720000000         1.4950000000        -2.3750000000
   O        -1.5890000000        -0.1930000000        -0.9970000000
   O         2.4710000000         1.6280000000        -1.3900000000
