      36
best TS-like step 152
   C        -2.5020000000         0.8130000000        -0.1560000000
   C        -4.3730000000         1.9360000000         0.6190000000
   H        -5.1570000000         1.1480000000         0.6700000000
   C        -4.1250000000         2.3710000000        -0.8340000000
   H        -5.0580000000         2.3260000000        -1.4170000000
   B        -1.3190000000        -0.1980000000        -0.1660000000
   N        -3.1540000000         1.3710000000        -1.2360000000
   N        -3.0660000000         1.3950000000         0.9620000000
   C        -3.0450000000         0.9650000000        -2.6070000000
   H        -2.3200000000         1.5760000000        -3.1850000000
   H        -2.7240000000        -0.0860000000        -2.6690000000
   H        -4.0310000000         1.0290000000        -3.1050000000
   C        -2.6560000000         1.2250000000         2.3220000000
   H        -1.6870000000         0.7180000000         2.3360000000
   H        -2.5310000000         2.1980000000         2.8280000000
   H        -3.3630000000         0.6100000000         2.9160000000
   N        -0.5590000000         0.0800000000        -1.3150000000
   N         0.1120000000         0.3350000000        -2.2380000000
   H        -3.7070000000         3.3950000000        -0.9210000000
   H        -4.6710000000         2.7840000000         1.2520000000
   C        -1.4990000000        -1.6810000000         0.5410000000
   C        -1.3300000000        -2.7920000000        -0.4970000000
   C        -2.9870000000        -1.7100000000         0.8650000000
   C        -0.8550000000        -2.2940000000         1.7990000000
   H        -3.3260000000        -2.7530000000         1.0250000000
   H        -3.2110000000        -1.1660000000         1.7920000000
   H        -3.6180000000        -1.2990000000         0.0610000000
   H         0.2310000000        -2.4620000000         1.7220000000
   H        -1.0620000000        -1.7370000000         2.7280000000
   H        -1.3410000000        -3.2800000000         1.9250000000
   H        -0.2770000000        -2.9800000000        -0.7710000000
   H        -1.7260000000        -3.7300000000        -0.0650000000
   H        -1.8860000000        -2.6060000000        -1.4300000000
   C         1.7220000000         0.2790000000        -0.4500000000
   O         0.8460000000         0.2060000000         0.3480000000
   O         2.6160000000         0.3320000000        -1.2050000000
