      36
best bond-forming step 293
   C        -2.4280000000         0.8430000000        -0.1980000000
   C        -3.9470000000         2.1880000000         0.9320000000
   H        -4.6780000000         1.7090000000         1.6180000000
   C        -4.3560000000         2.0780000000        -0.5320000000
   H        -5.3990000000         1.8030000000        -0.7110000000
   B        -1.2640000000        -0.2370000000        -0.3330000000
   N        -3.4470000000         1.0170000000        -1.0800000000
   N        -2.6770000000         1.4880000000         0.9720000000
   C        -3.4480000000         0.8230000000        -2.5540000000
   H        -2.6220000000         1.3450000000        -3.0590000000
   H        -3.4020000000        -0.2410000000        -2.8040000000
   H        -4.3860000000         1.2490000000        -2.9200000000
   C        -1.9400000000         1.6040000000         2.2630000000
   H        -0.8630000000         1.4290000000         2.1270000000
   H        -2.0830000000         2.6370000000         2.6090000000
   H        -2.3420000000         0.9240000000         3.0310000000
   N        -0.6980000000        -0.4550000000        -1.7610000000
   N         0.4820000000         0.0320000000        -1.8360000000
   H        -4.1690000000         3.0580000000        -1.0230000000
   H        -3.8060000000         3.2290000000         1.2540000000
   C        -1.3800000000        -1.7150000000         0.2920000000
   C        -0.9870000000        -2.8540000000        -0.7130000000
   C        -2.7260000000        -2.3260000000         0.6200000000
   C        -0.4080000000        -1.7000000000         1.5260000000
   H        -2.5390000000        -3.3420000000         1.0100000000
   H        -3.3610000000        -1.8120000000         1.3580000000
   H        -3.3180000000        -2.4620000000        -0.2900000000
   H         0.6200000000        -1.4530000000         1.2600000000
   H        -0.7050000000        -1.0000000000         2.3170000000
   H        -0.4020000000        -2.7110000000         1.9840000000
   H        -0.0410000000        -2.7760000000        -1.2580000000
   H        -0.9430000000        -3.7910000000        -0.1260000000
   H        -1.7820000000        -2.9690000000        -1.4610000000
   C         0.8940000000         0.5730000000        -0.7570000000
   O         0.0090000000         0.4410000000         0.3170000000
   O         2.1040000000         0.7120000000        -0.5780000000
