      36
best product-like step 12
   C        -2.8410000000         0.8180000000        -0.2920000000
   C        -4.4100000000         2.3140000000         0.4590000000
   H        -5.4590000000         1.9820000000         0.3930000000
   C        -3.8890000000         2.7530000000        -0.9020000000
   H        -4.6880000000         2.9680000000        -1.6150000000
   B        -1.9040000000        -0.3280000000        -0.3550000000
   N        -3.1410000000         1.6200000000        -1.3320000000
   N        -3.5480000000         1.2260000000         0.7970000000
   C        -2.8750000000         1.3690000000        -2.7160000000
   H        -1.9010000000         1.7660000000        -3.0350000000
   H        -2.8830000000         0.2950000000        -2.9120000000
   H        -3.6580000000         1.8150000000        -3.3330000000
   C        -3.1240000000         1.0730000000         2.1590000000
   H        -2.2510000000         0.4240000000         2.1940000000
   H        -2.8340000000         2.0360000000         2.6030000000
   H        -3.9140000000         0.6240000000         2.7760000000
   N        -0.8920000000        -0.1010000000        -1.3040000000
   N        -0.0110000000         0.0840000000        -2.0250000000
   H        -3.2530000000         3.6490000000        -0.8080000000
   H        -4.3470000000         3.0990000000         1.2150000000
   C        -1.9360000000        -1.7290000000         0.3910000000
   C        -1.6010000000        -2.7760000000        -0.6480000000
   C        -3.3320000000        -2.0560000000         0.9330000000
   C        -0.9060000000        -1.8240000000         1.5250000000
   H        -3.3470000000        -3.0780000000         1.3350000000
   H        -3.6410000000        -1.3930000000         1.7420000000
   H        -4.1030000000        -1.9980000000         0.1570000000
   H         0.1090000000        -1.6310000000         1.1590000000
   H        -1.0890000000        -1.1170000000         2.3390000000
   H        -0.9090000000        -2.8300000000         1.9680000000
   H        -0.6100000000        -2.6160000000        -1.0850000000
   H        -1.5900000000        -3.7710000000        -0.1800000000
   H        -2.3260000000        -2.7910000000        -1.4670000000
   C         2.6120000000         0.0260000000        -0.0150000000
   O         3.1290000000         0.0740000000         1.0280000000
   O         2.1030000000        -0.0200000000        -1.0540000000
