      36
final step 200
   C        -2.7360000000         0.8050000000        -0.2390000000
   C        -4.4220000000         2.1240000000         0.7230000000
   H        -5.2360000000         1.3840000000         0.8980000000
   C        -4.3300000000         2.4920000000        -0.7800000000
   H        -5.3060000000         2.4640000000        -1.2870000000
   B        -1.7180000000        -0.4080000000        -0.4070000000
   N        -3.4350000000         1.4310000000        -1.3030000000
   N        -3.0940000000         1.4890000000         0.9400000000
   C        -3.6490000000         1.0470000000        -2.7330000000
   H        -3.1120000000         1.7580000000        -3.3970000000
   H        -3.2940000000         0.0350000000        -2.9560000000
   H        -4.7300000000         1.0820000000        -2.9720000000
   C        -2.5710000000         1.3990000000         2.3190000000
   H        -1.5330000000         1.0620000000         2.3290000000
   H        -2.6050000000         2.4020000000         2.7900000000
   H        -3.1640000000         0.7020000000         2.9470000000
   N        -0.9810000000        -0.0680000000        -1.5750000000
   N        -0.3490000000         0.1600000000        -2.5020000000
   H        -3.8890000000         3.5030000000        -0.9290000000
   H        -4.5780000000         2.9860000000         1.3900000000
   C        -1.6270000000        -1.9550000000         0.3880000000
   C        -1.2290000000        -3.1260000000        -0.6330000000
   C        -3.1130000000        -1.9590000000         0.8570000000
   C        -0.7510000000        -2.1830000000         1.6920000000
   H        -3.3730000000        -2.8610000000         1.4510000000
   H        -3.3070000000        -1.0850000000         1.4900000000
   H        -3.8110000000        -1.9110000000         0.0030000000
   H         0.3210000000        -2.2510000000         1.4540000000
   H        -0.8840000000        -1.4060000000         2.4620000000
   H        -1.0650000000        -3.1460000000         2.1510000000
   H        -0.1450000000        -3.1120000000        -0.8140000000
   H        -1.4860000000        -4.1240000000        -0.2170000000
   H        -1.7140000000        -3.0290000000        -1.6230000000
   C         2.5230000000         0.4090000000        -0.0460000000
   O         2.2170000000         0.3730000000         1.0810000000
   O         2.8400000000         0.4500000000        -1.1660000000
