      36
best bond-forming step 14
   C        -2.8380000000         0.8130000000        -0.2910000000
   C        -4.4050000000         2.3020000000         0.4620000000
   H        -5.4570000000         1.9660000000         0.3960000000
   C        -3.8860000000         2.7410000000        -0.8990000000
   H        -4.6890000000         2.9570000000        -1.6120000000
   B        -1.9000000000        -0.3290000000        -0.3550000000
   N        -3.1390000000         1.6110000000        -1.3310000000
   N        -3.5400000000         1.2170000000         0.8000000000
   C        -2.8750000000         1.3600000000        -2.7140000000
   H        -1.8980000000         1.7610000000        -3.0350000000
   H        -2.8840000000         0.2810000000        -2.9160000000
   H        -3.6650000000         1.8050000000        -3.3310000000
   C        -3.1160000000         1.0680000000         2.1610000000
   H        -2.2370000000         0.4180000000         2.1980000000
   H        -2.8240000000         2.0340000000         2.6020000000
   H        -3.9070000000         0.6140000000         2.7780000000
   N        -0.8950000000        -0.0990000000        -1.3040000000
   N        -0.0150000000         0.0880000000        -2.0300000000
   H        -3.2470000000         3.6400000000        -0.8040000000
   H        -4.3430000000         3.0910000000         1.2170000000
   C        -1.9390000000        -1.7200000000         0.3920000000
   C        -1.6030000000        -2.7620000000        -0.6480000000
   C        -3.3350000000        -2.0470000000         0.9300000000
   C        -0.9110000000        -1.8140000000         1.5260000000
   H        -3.3490000000        -3.0750000000         1.3310000000
   H        -3.6460000000        -1.3850000000         1.7450000000
   H        -4.1090000000        -1.9890000000         0.1530000000
   H         0.1100000000        -1.6250000000         1.1600000000
   H        -1.0910000000        -1.1050000000         2.3420000000
   H        -0.9170000000        -2.8250000000         1.9710000000
   H        -0.6070000000        -2.5990000000        -1.0860000000
   H        -1.5920000000        -3.7610000000        -0.1800000000
   H        -2.3290000000        -2.7790000000        -1.4680000000
   C         2.6080000000         0.0310000000        -0.0150000000
   O         3.1220000000         0.0770000000         1.0300000000
   O         2.1010000000        -0.0140000000        -1.0600000000
