      36
best TS-like step 7
   C        -2.8480000000         0.8300000000        -0.2940000000
   C        -4.4270000000         2.3450000000         0.4510000000
   H        -5.4700000000         2.0230000000         0.3870000000
   C        -3.8980000000         2.7880000000        -0.9080000000
   H        -4.6910000000         3.0040000000        -1.6240000000
   B        -1.9100000000        -0.3300000000        -0.3550000000
   N        -3.1470000000         1.6440000000        -1.3350000000
   N        -3.5670000000         1.2460000000         0.7920000000
   C        -2.8740000000         1.3920000000        -2.7210000000
   H        -1.9070000000         1.7810000000        -3.0390000000
   H        -2.8800000000         0.3220000000        -2.9030000000
   H        -3.6480000000         1.8440000000        -3.3390000000
   C        -3.1460000000         1.0850000000         2.1580000000
   H        -2.2800000000         0.4340000000         2.1890000000
   H        -2.8570000000         2.0460000000         2.6030000000
   H        -3.9340000000         0.6460000000         2.7720000000
   N        -0.8840000000        -0.1070000000        -1.3040000000
   N        -0.0040000000         0.0750000000        -2.0140000000
   H        -3.2650000000         3.6760000000        -0.8200000000
   H        -4.3610000000         3.1280000000         1.2100000000
   C        -1.9290000000        -1.7500000000         0.3900000000
   C        -1.5940000000        -2.8140000000        -0.6480000000
   C        -3.3250000000        -2.0770000000         0.9400000000
   C        -0.8950000000        -1.8480000000         1.5230000000
   H        -3.3420000000        -3.0920000000         1.3480000000
   H        -3.6310000000        -1.4080000000         1.7400000000
   H        -4.0920000000        -2.0230000000         0.1620000000
   H         0.1120000000        -1.6470000000         1.1560000000
   H        -1.0840000000        -1.1430000000         2.3360000000
   H        -0.8910000000        -2.8490000000         1.9650000000
   H        -0.6110000000        -2.6580000000        -1.0860000000
   H        -1.5870000000        -3.8030000000        -0.1820000000
   H        -2.3210000000        -2.8250000000        -1.4680000000
   C         2.6250000000         0.0150000000        -0.0110000000
   O         3.1480000000         0.0650000000         1.0260000000
   O         2.1080000000        -0.0340000000        -1.0400000000
