      36
best bond-forming step 19
   C        -2.8270000000         0.7990000000        -0.3120000000
   C        -4.3720000000         2.2790000000         0.4200000000
   H        -5.4280000000         1.9400000000         0.3480000000
   C        -3.8510000000         2.7260000000        -0.9460000000
   H        -4.6610000000         2.9560000000        -1.6540000000
   B        -1.8990000000        -0.3410000000        -0.3460000000
   N        -3.1200000000         1.5910000000        -1.3610000000
   N        -3.5100000000         1.1940000000         0.7790000000
   C        -2.8630000000         1.3520000000        -2.7420000000
   H        -1.8800000000         1.7470000000        -3.0670000000
   H        -2.8900000000         0.2680000000        -2.9530000000
   H        -3.6610000000         1.8110000000        -3.3470000000
   C        -3.0880000000         1.0460000000         2.1410000000
   H        -2.2060000000         0.3920000000         2.1870000000
   H        -2.7900000000         2.0210000000         2.5760000000
   H        -3.8870000000         0.5900000000         2.7560000000
   N        -0.9030000000        -0.0770000000        -1.2780000000
   N        -0.0350000000         0.1290000000        -2.0120000000
   H        -3.1960000000         3.6240000000        -0.8520000000
   H        -4.3140000000         3.0800000000         1.1730000000
   C        -1.9590000000        -1.7260000000         0.4100000000
   C        -1.6300000000        -2.7620000000        -0.6190000000
   C        -3.3530000000        -2.0580000000         0.9340000000
   C        -0.9260000000        -1.8380000000         1.5370000000
   H        -3.3610000000        -3.0930000000         1.3390000000
   H        -3.6700000000        -1.3960000000         1.7570000000
   H        -4.1310000000        -2.0070000000         0.1510000000
   H         0.0990000000        -1.6270000000         1.1710000000
   H        -1.1180000000        -1.1390000000         2.3720000000
   H        -0.9130000000        -2.8600000000         1.9670000000
   H        -0.6260000000        -2.6080000000        -1.0560000000
   H        -1.6290000000        -3.7660000000        -0.1480000000
   H        -2.3620000000        -2.7770000000        -1.4410000000
   C         2.5870000000         0.0680000000         0.0170000000
   O         3.1060000000         0.1000000000         1.0680000000
   O         2.0830000000         0.0350000000        -1.0410000000
