      36
final step 200
   C        -2.7450000000         0.6450000000        -0.3550000000
   C        -4.3140000000         2.2690000000         0.3830000000
   H        -5.3000000000         1.7640000000         0.5110000000
   C        -3.9780000000         2.5150000000        -1.1070000000
   H        -4.8590000000         2.6730000000        -1.7450000000
   B        -1.7100000000        -0.5560000000        -0.4250000000
   N        -3.2590000000         1.2850000000        -1.4980000000
   N        -3.1940000000         1.3600000000         0.7700000000
   C        -3.3920000000         0.8370000000        -2.9120000000
   H        -2.8560000000         1.5480000000        -3.5740000000
   H        -2.9730000000        -0.1610000000        -3.0650000000
   H        -4.4610000000         0.8150000000        -3.2140000000
   C        -2.6150000000         1.4610000000         2.1310000000
   H        -1.6930000000         0.8810000000         2.2190000000
   H        -2.3580000000         2.5150000000         2.3730000000
   H        -3.3240000000         1.0800000000         2.8910000000
   N        -0.7960000000        -0.0940000000        -1.4240000000
   N        -0.0360000000         0.2530000000        -2.2140000000
   H        -3.3160000000         3.4050000000        -1.2120000000
   H        -4.3150000000         3.1960000000         0.9750000000
   C        -1.7880000000        -2.0610000000         0.4150000000
   C        -1.4670000000        -3.3240000000        -0.5250000000
   C        -3.2800000000        -1.9860000000         0.8480000000
   C        -0.9210000000        -2.2900000000         1.7140000000
   H        -3.6060000000        -2.8950000000         1.4000000000
   H        -3.4650000000        -1.1210000000         1.4930000000
   H        -3.9400000000        -1.8880000000        -0.0340000000
   H         0.1290000000        -2.4750000000         1.4420000000
   H        -0.9540000000        -1.4720000000         2.4490000000
   H        -1.3070000000        -3.2010000000         2.2280000000
   H        -0.3860000000        -3.3810000000        -0.7130000000
   H        -1.7650000000        -4.2740000000        -0.0340000000
   H        -1.9570000000        -3.2730000000        -1.5160000000
   C         2.3510000000         0.6860000000         0.2590000000
   O         1.9530000000         0.5180000000         1.3460000000
   O         2.7660000000         0.8620000000        -0.8160000000
