      36
best bond-forming step 1
   C        -2.8590000000         0.8460000000        -0.2970000000
   C        -4.4560000000         2.3920000000         0.4410000000
   H        -5.5120000000         2.0750000000         0.3790000000
   C        -3.9130000000         2.8420000000        -0.9180000000
   H        -4.7140000000         3.0670000000        -1.6380000000
   B        -1.9150000000        -0.3380000000        -0.3550000000
   N        -3.1560000000         1.6770000000        -1.3420000000
   N        -3.5920000000         1.2720000000         0.7880000000
   C        -2.8720000000         1.4230000000        -2.7300000000
   H        -1.8910000000         1.8120000000        -3.0530000000
   H        -2.8780000000         0.3360000000        -2.9030000000
   H        -3.6520000000         1.8890000000        -3.3500000000
   C        -3.1750000000         1.1020000000         2.1580000000
   H        -2.3050000000         0.4370000000         2.1890000000
   H        -2.8830000000         2.0720000000         2.6010000000
   H        -3.9760000000         0.6670000000         2.7770000000
   N        -0.8750000000        -0.1140000000        -1.3010000000
   N         0.0020000000         0.0620000000        -2.0050000000
   H        -3.2690000000         3.7370000000        -0.8360000000
   H        -4.3850000000         3.1830000000         1.2020000000
   C        -1.9210000000        -1.7810000000         0.3910000000
   C        -1.5830000000        -2.8680000000        -0.6500000000
   C        -3.3160000000        -2.1070000000         0.9500000000
   C        -0.8790000000        -1.8820000000         1.5200000000
   H        -3.3340000000        -3.1270000000         1.3720000000
   H        -3.6230000000        -1.4200000000         1.7520000000
   H        -4.0830000000        -2.0560000000         0.1590000000
   H         0.1350000000        -1.6680000000         1.1450000000
   H        -1.0800000000        -1.1720000000         2.3390000000
   H        -0.8650000000        -2.8940000000         1.9630000000
   H        -0.5870000000        -2.7170000000        -1.0960000000
   H        -1.5840000000        -3.8690000000        -0.1830000000
   H        -2.3180000000        -2.8780000000        -1.4710000000
   C         2.6460000000         0.0000000000         0.0000000000
   O         3.1780000000         0.0540000000         1.0320000000
   O         2.1140000000        -0.0540000000        -1.0320000000
