      36
final step 200
   C        -2.8910000000         0.8420000000        -0.3010000000
   C        -4.4630000000         2.4140000000         0.4510000000
   H        -5.5090000000         2.0730000000         0.3860000000
   C        -3.9270000000         2.8550000000        -0.9210000000
   H        -4.7300000000         3.1120000000        -1.6210000000
   B        -1.9230000000        -0.3550000000        -0.3580000000
   N        -3.2190000000         1.6530000000        -1.3590000000
   N        -3.5690000000         1.3040000000         0.8050000000
   C        -2.9030000000         1.4240000000        -2.7530000000
   H        -1.9300000000         1.8440000000        -3.0500000000
   H        -2.8850000000         0.3500000000        -2.9600000000
   H        -3.6920000000         1.8740000000        -3.3660000000
   C        -3.1660000000         1.1130000000         2.1830000000
   H        -2.3120000000         0.4350000000         2.2250000000
   H        -2.8560000000         2.0710000000         2.6270000000
   H        -3.9810000000         0.6830000000         2.7840000000
   N        -0.9400000000        -0.1180000000        -1.3470000000
   N        -0.1780000000         0.0720000000        -2.1900000000
   H        -3.2470000000         3.7210000000        -0.8350000000
   H        -4.4070000000         3.2150000000         1.1980000000
   C        -1.9210000000        -1.7950000000         0.3920000000
   C        -1.5650000000        -2.8810000000        -0.6500000000
   C        -3.3230000000        -2.1120000000         0.9500000000
   C        -0.8720000000        -1.8780000000         1.5230000000
   H        -3.3410000000        -3.1290000000         1.3690000000
   H        -3.6260000000        -1.4270000000         1.7490000000
   H        -4.0880000000        -2.0610000000         0.1640000000
   H         0.1380000000        -1.6740000000         1.1460000000
   H        -1.0650000000        -1.1690000000         2.3380000000
   H        -0.8640000000        -2.8890000000         1.9640000000
   H        -0.5680000000        -2.7250000000        -1.0790000000
   H        -1.5710000000        -3.8760000000        -0.1810000000
   H        -2.2880000000        -2.8990000000        -1.4770000000
   C         2.7640000000        -0.0220000000         0.0630000000
   O         3.1210000000         0.0330000000         1.1850000000
   O         2.4220000000        -0.0770000000        -1.0550000000
