      36
best product-like step 892
   C        -2.4790000000         0.3450000000         0.1460000000
   C        -3.4770000000         2.1410000000         1.1620000000
   H        -3.9390000000         1.7320000000         2.0760000000
   C        -4.2860000000         1.7430000000        -0.0910000000
   H        -5.3640000000         1.7310000000         0.0920000000
   B        -1.3650000000        -0.6890000000        -0.2840000000
   N        -3.7460000000         0.3860000000        -0.3620000000
   N        -2.1780000000         1.4530000000         0.9190000000
   C        -4.2030000000        -0.4820000000        -1.4930000000
   H        -4.5870000000         0.1240000000        -2.3220000000
   H        -3.3520000000        -1.0950000000        -1.8410000000
   H        -4.9840000000        -1.1720000000        -1.1300000000
   C        -1.1320000000         1.4160000000         2.0130000000
   H        -1.5690000000         1.7730000000         2.9470000000
   H        -0.7860000000         0.3900000000         2.1650000000
   H        -0.2820000000         2.0320000000         1.7050000000
   N        -0.7580000000        -0.0300000000        -1.2900000000
   N        -0.3690000000         0.5620000000        -2.2260000000
   H        -4.0770000000         2.4010000000        -0.9480000000
   H        -3.3600000000         3.2220000000         1.2800000000
   C        -1.0400000000        -2.2280000000         0.0590000000
   C        -0.5970000000        -2.8560000000        -1.3090000000
   C        -2.2100000000        -2.9400000000         0.6960000000
   C         0.0850000000        -2.2020000000         1.1140000000
   H        -1.9520000000        -4.0040000000         0.8490000000
   H        -2.4300000000        -2.5180000000         1.6910000000
   H        -3.1150000000        -2.9150000000         0.0710000000
   H         0.6870000000        -1.2890000000         1.0150000000
   H        -0.2950000000        -2.2720000000         2.1430000000
   H         0.7870000000        -3.0400000000         0.9630000000
   H         0.2450000000        -2.3060000000        -1.7570000000
   H        -0.3250000000        -3.9210000000        -1.1800000000
   H        -1.4280000000        -2.8080000000        -2.0300000000
   C         0.4600000000         1.7620000000        -0.9020000000
   O        -0.1760000000         2.7370000000        -1.1870000000
   O         1.2080000000         1.1330000000        -0.2030000000
