      36
best TS-like step 162
   C        -2.6660000000         0.8160000000        -0.2110000000
   C        -4.4300000000         2.0390000000         0.6280000000
   H        -5.2530000000         1.3070000000         0.6860000000
   C        -4.1930000000         2.4780000000        -0.8140000000
   H        -5.1390000000         2.5100000000        -1.3590000000
   B        -1.5150000000        -0.2650000000        -0.2800000000
   N        -3.3120000000         1.4120000000        -1.2800000000
   N        -3.1600000000         1.4030000000         0.9330000000
   C        -3.3340000000         1.0570000000        -2.6890000000
   H        -2.6370000000         1.6390000000        -3.2970000000
   H        -3.0950000000         0.0040000000        -2.8220000000
   H        -4.3530000000         1.1800000000        -3.0630000000
   C        -2.6570000000         1.2740000000         2.2900000000
   H        -1.6380000000         0.8720000000         2.2530000000
   H        -2.5910000000         2.2640000000         2.7560000000
   H        -3.2530000000         0.6060000000         2.9210000000
   N        -0.7810000000         0.0050000000        -1.4750000000
   N        -0.1730000000         0.2770000000        -2.4150000000
   H        -3.6950000000         3.4600000000        -0.8860000000
   H        -4.6570000000         2.8890000000         1.2730000000
   C        -1.5970000000        -1.7970000000         0.4420000000
   C        -1.3820000000        -2.9930000000        -0.4920000000
   C        -3.0630000000        -1.8490000000         0.8540000000
   C        -0.8680000000        -2.2640000000         1.7250000000
   H        -3.3650000000        -2.8600000000         1.1540000000
   H        -3.2230000000        -1.2050000000         1.7210000000
   H        -3.7520000000        -1.5200000000         0.0740000000
   H         0.2190000000        -2.3200000000         1.6520000000
   H        -1.1180000000        -1.6420000000         2.5900000000
   H        -1.2350000000        -3.2730000000         1.9490000000
   H        -0.3330000000        -3.1450000000        -0.7580000000
   H        -1.7260000000        -3.8930000000         0.0300000000
   H        -1.9620000000        -2.9310000000        -1.4200000000
   C         2.2520000000         0.3290000000        -0.1890000000
   O         1.8670000000         0.2820000000         0.9100000000
   O         2.6920000000         0.3740000000        -1.2730000000
