      36
final step 1000
   C        -2.4060000000         0.3290000000         0.2200000000
   C        -3.6180000000         1.8280000000         1.5500000000
   H        -4.2100000000         1.3410000000         2.3270000000
   C        -4.3060000000         1.7000000000         0.1650000000
   H        -5.3850000000         1.5480000000         0.2650000000
   B        -1.3860000000        -0.6890000000        -0.5020000000
   N        -3.6390000000         0.4820000000        -0.3720000000
   N        -2.3330000000         1.0660000000         1.3780000000
   C        -4.1380000000        -0.3690000000        -1.4810000000
   H        -5.2280000000        -0.4270000000        -1.3990000000
   H        -3.8570000000         0.0510000000        -2.4680000000
   H        -3.7300000000        -1.3780000000        -1.3750000000
   C        -1.1170000000         1.4280000000         2.1100000000
   H        -1.3210000000         2.3510000000         2.6530000000
   H        -0.8790000000         0.6440000000         2.8370000000
   H        -0.2600000000         1.5740000000         1.4500000000
   N        -0.8540000000        -0.3290000000        -1.7310000000
   N        -0.1670000000        -0.1160000000        -2.6520000000
   H        -4.1050000000         2.5530000000        -0.4910000000
   H        -3.4400000000         2.8710000000         1.8290000000
   C        -0.9360000000        -2.2140000000         0.0200000000
   C        -0.5530000000        -3.1590000000        -1.1060000000
   C        -2.1770000000        -2.8870000000         0.7480000000
   C         0.2800000000        -2.0920000000         1.0180000000
   H        -1.8250000000        -3.5770000000         1.5200000000
   H        -2.8470000000        -2.1590000000         1.2180000000
   H        -2.7750000000        -3.4770000000         0.0470000000
   H         1.2460000000        -1.9460000000         0.5220000000
   H         0.1210000000        -1.2570000000         1.7010000000
   H         0.3320000000        -2.9980000000         1.6350000000
   H         0.4020000000        -2.8710000000        -1.5680000000
   H        -0.4040000000        -4.1560000000        -0.6690000000
   H        -1.2920000000        -3.2520000000        -1.9080000000
   C         0.3590000000         2.3790000000        -0.8750000000
   O        -0.5980000000         2.8670000000        -1.3470000000
   O         1.3510000000         1.9690000000        -0.4050000000
