      36
best bond-forming step 888
   C        -2.4820000000         0.3460000000         0.1420000000
   C        -3.4700000000         2.1540000000         1.1450000000
   H        -3.9190000000         1.7780000000         2.0700000000
   C        -4.2820000000         1.7400000000        -0.0970000000
   H        -5.3630000000         1.7420000000         0.0810000000
   B        -1.3730000000        -0.6940000000        -0.2840000000
   N        -3.7470000000         0.3880000000        -0.3580000000
   N        -2.1810000000         1.4570000000         0.9110000000
   C        -4.2110000000        -0.4760000000        -1.4920000000
   H        -4.5440000000         0.1220000000        -2.3420000000
   H        -3.3670000000        -1.1190000000        -1.8050000000
   H        -5.0200000000        -1.1330000000        -1.1510000000
   C        -1.1450000000         1.4190000000         2.0060000000
   H        -1.5920000000         1.7480000000         2.9400000000
   H        -0.7900000000         0.3970000000         2.1430000000
   H        -0.2820000000         2.0480000000         1.7380000000
   N        -0.7710000000        -0.0280000000        -1.2940000000
   N        -0.3740000000         0.5730000000        -2.2160000000
   H        -4.0710000000         2.3870000000        -0.9530000000
   H        -3.3670000000         3.2400000000         1.2290000000
   C        -1.0310000000        -2.2260000000         0.0600000000
   C        -0.6010000000        -2.8560000000        -1.3100000000
   C        -2.2030000000        -2.9370000000         0.6920000000
   C         0.0770000000        -2.2190000000         1.1250000000
   H        -1.9640000000        -4.0030000000         0.8010000000
   H        -2.3980000000        -2.5570000000         1.7040000000
   H        -3.1110000000        -2.8770000000         0.0900000000
   H         0.6910000000        -1.3170000000         1.0430000000
   H        -0.2980000000        -2.3030000000         2.1450000000
   H         0.7730000000        -3.0550000000         0.9670000000
   H         0.2210000000        -2.2860000000        -1.7660000000
   H        -0.2950000000        -3.9040000000        -1.1840000000
   H        -1.4450000000        -2.8330000000        -2.0020000000
   C         0.4670000000         1.7550000000        -0.8900000000
   O        -0.1560000000         2.7460000000        -1.1790000000
   O         1.2160000000         1.1100000000        -0.1990000000
