      36
best TS-like step 130
   C        -2.4270000000         0.8360000000        -0.1610000000
   C        -4.3830000000         1.9320000000         0.5850000000
   H        -5.2290000000         1.2090000000         0.6040000000
   C        -4.0600000000         2.3850000000        -0.8340000000
   H        -4.8850000000         2.3960000000        -1.5590000000
   B        -1.2710000000        -0.1860000000        -0.1520000000
   N        -3.1150000000         1.3200000000        -1.2140000000
   N        -3.0990000000         1.2760000000         0.9280000000
   C        -2.9250000000         0.9590000000        -2.5810000000
   H        -2.1360000000         1.5720000000        -3.0640000000
   H        -2.6460000000        -0.1030000000        -2.6680000000
   H        -3.8880000000         1.1170000000        -3.0960000000
   C        -2.7010000000         1.1240000000         2.2940000000
   H        -1.7660000000         0.5630000000         2.3620000000
   H        -2.5730000000         2.1190000000         2.7590000000
   H        -3.4880000000         0.5710000000         2.8420000000
   N        -0.3990000000         0.1180000000        -1.2460000000
   N         0.0900000000         0.3260000000        -2.2660000000
   H        -3.5700000000         3.3830000000        -0.8140000000
   H        -4.5830000000         2.7340000000         1.3110000000
   C        -1.5360000000        -1.5810000000         0.5930000000
   C        -1.4240000000        -2.6540000000        -0.5250000000
   C        -3.0600000000        -1.6720000000         0.8490000000
   C        -0.8560000000        -2.2110000000         1.8520000000
   H        -3.3270000000        -2.7450000000         0.8530000000
   H        -3.4300000000        -1.2710000000         1.8010000000
   H        -3.6480000000        -1.2240000000         0.0330000000
   H         0.2280000000        -2.3620000000         1.7080000000
   H        -1.0130000000        -1.6530000000         2.7900000000
   H        -1.3070000000        -3.2160000000         1.9700000000
   H        -0.3880000000        -2.8670000000        -0.8400000000
   H        -1.8640000000        -3.6020000000        -0.1650000000
   H        -2.0020000000        -2.3590000000        -1.4170000000
   C         1.6640000000         0.2210000000        -0.4640000000
   O         0.7990000000         0.1710000000         0.3800000000
   O         2.5480000000         0.2750000000        -1.2600000000
