      36
final step 1000
   C        -2.4110000000         0.3860000000         0.1690000000
   C        -3.8400000000         1.9470000000         1.2780000000
   H        -4.0970000000         1.9830000000         2.3420000000
   C        -4.7900000000         1.0230000000         0.4140000000
   H        -5.5760000000         0.5600000000         1.0240000000
   B        -0.9460000000        -0.3540000000        -0.5330000000
   N        -3.7350000000         0.1380000000        -0.1150000000
   N        -2.4320000000         1.4350000000         1.0370000000
   C        -4.0560000000        -0.6550000000        -1.2280000000
   H        -3.2230000000        -1.3670000000        -1.3660000000
   H        -4.9000000000        -1.3220000000        -0.9840000000
   H        -4.1950000000        -0.0720000000        -2.1600000000
   C        -1.2430000000         2.2360000000         1.5270000000
   H        -0.6180000000         1.5210000000         2.0810000000
   H        -0.6290000000         2.7450000000         0.7760000000
   H        -1.6250000000         2.9660000000         2.2500000000
   N        -0.8330000000        -0.2980000000        -2.0290000000
   N        -0.4130000000         0.7210000000        -2.5360000000
   H        -5.2160000000         1.6840000000        -0.3680000000
   H        -3.8470000000         2.9690000000         0.8900000000
   C        -0.8200000000        -1.8970000000         0.2340000000
   C         0.5540000000        -2.2340000000        -0.5830000000
   C        -1.9630000000        -3.0240000000        -0.1610000000
   C        -0.5740000000        -1.6130000000         1.7710000000
   H        -1.7530000000        -4.0510000000         0.1970000000
   H        -2.9190000000        -2.7610000000         0.2950000000
   H        -1.9840000000        -3.2210000000        -1.2420000000
   H         0.3310000000        -0.9910000000         1.7430000000
   H        -1.3160000000        -0.8600000000         2.0910000000
   H        -0.4260000000        -2.3390000000         2.5800000000
   H         1.0650000000        -1.2740000000        -0.6270000000
   H         1.2910000000        -2.9640000000        -0.2130000000
   H         0.4050000000        -2.4090000000        -1.6600000000
   C         0.4250000000         1.3200000000        -1.2300000000
   O        -0.0710000000         0.7250000000        -0.1700000000
   O         0.9600000000         2.3570000000        -1.1650000000
