      36
best bond-forming step 589
   C        -2.3730000000         0.6450000000        -0.0370000000
   C        -3.8530000000         2.3380000000         0.7550000000
   H        -4.4160000000         2.3720000000         1.6920000000
   C        -4.5720000000         1.3530000000        -0.2220000000
   H        -5.1630000000         0.6770000000         0.4210000000
   B        -0.9980000000        -0.3370000000        -0.3620000000
   N        -3.4730000000         0.5700000000        -0.8410000000
   N        -2.5640000000         1.6460000000         0.8880000000
   C        -3.7780000000        -0.5430000000        -1.8310000000
   H        -2.9360000000        -0.7600000000        -2.5020000000
   H        -4.1060000000        -1.4380000000        -1.3110000000
   H        -4.6010000000        -0.1610000000        -2.4450000000
   C        -1.8590000000         1.6100000000         2.1710000000
   H        -1.1650000000         0.7690000000         2.1330000000
   H        -1.2350000000         2.4830000000         2.3950000000
   H        -2.5790000000         1.4540000000         2.9820000000
   N        -1.0210000000         0.4520000000        -1.9400000000
   N         0.0200000000         1.0610000000        -2.0120000000
   H        -5.1830000000         1.7820000000        -1.0110000000
   H        -3.7240000000         3.3720000000         0.3920000000
   C        -1.2010000000        -1.7610000000         0.2890000000
   C        -0.2720000000        -2.6120000000        -0.7700000000
   C        -2.7350000000        -2.2590000000         0.5940000000
   C        -0.5510000000        -1.8070000000         1.7540000000
   H        -2.6160000000        -3.0290000000         1.3590000000
   H        -3.3460000000        -1.4590000000         1.0360000000
   H        -3.3020000000        -2.7460000000        -0.2200000000
   H         0.4640000000        -1.4090000000         1.8140000000
   H        -1.1740000000        -1.1820000000         2.4110000000
   H        -0.5260000000        -2.8260000000         2.1480000000
   H         0.6640000000        -2.0580000000        -0.8590000000
   H        -0.0360000000        -3.6590000000        -0.5380000000
   H        -0.7700000000        -2.5800000000        -1.7550000000
   C         0.8230000000         0.7650000000        -1.0420000000
   O         0.2690000000         0.0990000000         0.0080000000
   O         1.9770000000         1.3470000000        -0.8630000000
