      36
best product-like step 346
   C        -2.5460000000         0.8110000000        -0.2390000000
   C        -3.8200000000         2.4010000000         1.0110000000
   H        -4.4220000000         2.3030000000         1.9190000000
   C        -4.5780000000         2.0250000000        -0.2990000000
   H        -5.6020000000         1.6720000000        -0.1300000000
   B        -1.2730000000        -0.1650000000        -0.3880000000
   N        -3.7580000000         0.8660000000        -0.8860000000
   N        -2.6540000000         1.4390000000         0.9600000000
   C        -3.6660000000         0.7130000000        -2.3420000000
   H        -3.8780000000        -0.3410000000        -2.5830000000
   H        -4.4190000000         1.3270000000        -2.8420000000
   H        -2.6900000000         0.9210000000        -2.7840000000
   C        -1.5940000000         1.6650000000         1.9410000000
   H        -0.6290000000         1.5120000000         1.4850000000
   H        -1.6500000000         2.7000000000         2.2810000000
   H        -1.7000000000         1.0160000000         2.8140000000
   N        -0.5250000000        -0.4280000000        -1.7730000000
   N         0.7010000000        -0.5620000000        -1.8570000000
   H        -4.6050000000         2.8860000000        -0.9700000000
   H        -3.3850000000         3.4080000000         0.9510000000
   C        -1.3510000000        -1.9050000000         0.1290000000
   C        -0.6600000000        -2.9470000000        -0.8300000000
   C        -2.7080000000        -2.3590000000         0.5680000000
   C        -0.4300000000        -1.8230000000         1.3420000000
   H        -2.7310000000        -3.3860000000         0.9510000000
   H        -2.9970000000        -1.7000000000         1.4000000000
   H        -3.4920000000        -2.2920000000        -0.1960000000
   H         0.6150000000        -1.6350000000         1.0700000000
   H        -0.7350000000        -1.0720000000         2.0820000000
   H        -0.4060000000        -2.7700000000         1.8910000000
   H         0.3650000000        -2.6290000000        -1.0480000000
   H        -0.5360000000        -3.8950000000        -0.2950000000
   H        -1.1460000000        -3.1950000000        -1.7820000000
   C         0.9630000000         0.5360000000        -0.5490000000
   O        -0.1560000000         0.7300000000        -0.1030000000
   O         1.7940000000         1.3430000000        -0.0940000000
