      36
best TS-like step 104
   C        -2.6720000000         0.7990000000        -0.2520000000
   C        -4.4500000000         2.0910000000         0.5680000000
   H        -5.4160000000         1.5570000000         0.5380000000
   C        -4.0230000000         2.5970000000        -0.8180000000
   H        -4.8890000000         2.8570000000        -1.4400000000
   B        -1.5810000000        -0.2840000000        -0.2990000000
   N        -3.2810000000         1.4210000000        -1.3080000000
   N        -3.3500000000         1.1670000000         0.8890000000
   C        -3.0420000000         1.0780000000        -2.6890000000
   H        -2.1490000000         1.5430000000        -3.1370000000
   H        -2.9350000000        -0.0140000000        -2.7820000000
   H        -3.9240000000         1.3590000000        -3.2810000000
   C        -2.8020000000         1.0400000000         2.2070000000
   H        -1.8320000000         0.5330000000         2.1470000000
   H        -2.6150000000         2.0290000000         2.6470000000
   H        -3.4480000000         0.4700000000         2.8950000000
   N        -0.7060000000        -0.0470000000        -1.4320000000
   N        -0.3130000000         0.2980000000        -2.4600000000
   H        -3.3560000000         3.4740000000        -0.7510000000
   H        -4.5280000000         2.9130000000         1.2900000000
   C        -1.8530000000        -1.7230000000         0.4980000000
   C        -1.5770000000        -2.7950000000        -0.5930000000
   C        -3.3800000000        -1.8610000000         0.8780000000
   C        -0.8720000000        -1.9200000000         1.7170000000
   H        -3.6400000000        -2.9140000000         1.0670000000
   H        -3.6430000000        -1.2980000000         1.7830000000
   H        -4.0260000000        -1.4990000000         0.0680000000
   H         0.1750000000        -1.7360000000         1.4250000000
   H        -1.1000000000        -1.2230000000         2.5360000000
   H        -0.9380000000        -2.9340000000         2.1450000000
   H        -0.5360000000        -2.7610000000        -0.9610000000
   H        -1.7680000000        -3.8140000000        -0.2190000000
   H        -2.2190000000        -2.6370000000        -1.4670000000
   C         2.4910000000         0.2210000000        -0.0740000000
   O         2.6020000000         0.2200000000         1.0830000000
   O         2.3770000000         0.2230000000        -1.2330000000
