      36
best product-like step 97
   C        -2.6860000000         0.7910000000        -0.2550000000
   C        -4.4370000000         2.0910000000         0.5650000000
   H        -5.4060000000         1.5850000000         0.5170000000
   C        -3.9980000000         2.6000000000        -0.8240000000
   H        -4.8670000000         2.8730000000        -1.4230000000
   B        -1.6030000000        -0.2840000000        -0.2930000000
   N        -3.2670000000         1.4320000000        -1.3270000000
   N        -3.3680000000         1.1450000000         0.9020000000
   C        -3.0070000000         1.0810000000        -2.7120000000
   H        -2.1090000000         1.5330000000        -3.1290000000
   H        -2.9020000000         0.0020000000        -2.7780000000
   H        -3.8600000000         1.3800000000        -3.3170000000
   C        -2.8150000000         1.0190000000         2.2270000000
   H        -1.8670000000         0.4860000000         2.1410000000
   H        -2.6010000000         2.0000000000         2.6640000000
   H        -3.4660000000         0.4710000000         2.9100000000
   N        -0.7060000000        -0.0510000000        -1.4210000000
   N        -0.3020000000         0.2920000000        -2.4440000000
   H        -3.3340000000         3.4700000000        -0.7570000000
   H        -4.5160000000         2.9190000000         1.2740000000
   C        -1.8820000000        -1.7270000000         0.5010000000
   C        -1.5850000000        -2.7630000000        -0.6150000000
   C        -3.4120000000        -1.8650000000         0.8850000000
   C        -0.8740000000        -1.8730000000         1.7110000000
   H        -3.6860000000        -2.9000000000         1.0990000000
   H        -3.6570000000        -1.2790000000         1.7680000000
   H        -4.0460000000        -1.5060000000         0.0720000000
   H         0.1490000000        -1.6750000000         1.3820000000
   H        -1.0980000000        -1.1550000000         2.5010000000
   H        -0.8980000000        -2.8620000000         2.1820000000
   H        -0.5580000000        -2.6810000000        -0.9770000000
   H        -1.7350000000        -3.7960000000        -0.2830000000
   H        -2.2370000000        -2.5940000000        -1.4780000000
   C         2.4960000000         0.2070000000        -0.0730000000
   O         2.6550000000         0.2100000000         1.0910000000
   O         2.3410000000         0.2040000000        -1.2300000000
