      36
best bond-forming step 200
   C        -2.6760000000         0.8180000000        -0.2170000000
   C        -4.4100000000         2.0890000000         0.7200000000
   H        -5.2000000000         1.3230000000         0.8950000000
   C        -4.3200000000         2.4440000000        -0.7870000000
   H        -5.2910000000         2.3750000000        -1.2990000000
   B        -1.6450000000        -0.3900000000        -0.3530000000
   N        -3.3830000000         1.4100000000        -1.2910000000
   N        -3.0630000000         1.5010000000         0.9510000000
   C        -3.5580000000         1.0150000000        -2.7230000000
   H        -3.0290000000         1.7380000000        -3.3800000000
   H        -3.1750000000         0.0110000000        -2.9370000000
   H        -4.6350000000         1.0240000000        -2.9830000000
   C        -2.5450000000         1.4170000000         2.3320000000
   H        -1.5050000000         1.0830000000         2.3460000000
   H        -2.5850000000         2.4200000000         2.8020000000
   H        -3.1400000000         0.7200000000         2.9580000000
   N        -0.8800000000        -0.0440000000        -1.5010000000
   N        -0.2180000000         0.2020000000        -2.4030000000
   H        -3.9160000000         3.4690000000        -0.9450000000
   H        -4.6020000000         2.9520000000         1.3770000000
   C        -1.6130000000        -1.9470000000         0.4130000000
   C        -1.2310000000        -3.0970000000        -0.6390000000
   C        -3.1020000000        -1.9220000000         0.8810000000
   C        -0.7540000000        -2.2410000000         1.7160000000
   H        -3.3870000000        -2.8330000000         1.4500000000
   H        -3.2720000000        -1.0670000000         1.5440000000
   H        -3.8030000000        -1.8280000000         0.0320000000
   H         0.3160000000        -2.3530000000         1.4810000000
   H        -0.8540000000        -1.4740000000         2.5020000000
   H        -1.1140000000        -3.1990000000         2.1510000000
   H        -0.1460000000        -3.0870000000        -0.8160000000
   H        -1.4970000000        -4.1030000000        -0.2510000000
   H        -1.7130000000        -2.9690000000        -1.6270000000
   C         2.3340000000         0.4110000000        -0.1550000000
   O         1.8150000000         0.3560000000         0.8920000000
   O         2.8720000000         0.4710000000        -1.1890000000
