      36
Step =        0, E =      0.00000000
   C        -2.8587945258         0.8458231710        -0.2966284994
   C        -4.4561744152         2.3923054640         0.4410875629
   H        -5.5118880186         2.0751452301         0.3794257955
   C        -3.9132801555         2.8421287098        -0.9181195003
   H        -4.7139413719         3.0668154260        -1.6380938573
   B        -1.9154031008        -0.3379177052        -0.3545745050
   N        -3.1556769792         1.6773971076        -1.3421779489
   N        -3.5918550744         1.2717968057         0.7875460152
   C        -2.8719097729         1.4229336950        -2.7299738458
   H        -1.8905527893         1.8124703553        -3.0532660854
   H        -2.8776314305         0.3362132458        -2.9033171549
   H        -3.6524509843         1.8894652240        -3.3497707607
   C        -3.1748784898         1.1017345001         2.1576396022
   H        -2.3049382731         0.4369912444         2.1890991265
   H        -2.8827456080         2.0715974453         2.6009518547
   H        -3.9760831900         0.6670859418         2.7772226470
   N        -0.8745463454        -0.1144269849        -1.3006174003
   N         0.0016037858         0.0624604646        -2.0051330154
   H        -3.2687544886         3.7368453008        -0.8358075954
   H        -4.3854745019         3.1833789632         1.2024829633
   C        -1.9207527514        -1.7810375775         0.3908055817
   C        -1.5833714717        -2.8683033409        -0.6498493261
   C        -3.3161572593        -2.1067509235         0.9495401117
   C        -0.8788260778        -1.8815786433         1.5203728365
   H        -3.3340502639        -3.1272973347         1.3719082175
   H        -3.6233306469        -1.4204200231         1.7517887369
   H        -4.0826078991        -2.0559584792         0.1594955062
   H         0.1350865649        -1.6680850715         1.1452802161
   H        -1.0799167428        -1.1723983523         2.3394318634
   H        -0.8654934949        -2.8944670336         1.9631366186
   H        -0.5872745404        -2.7165063618        -1.0963586032
   H        -1.5837318997        -3.8693739834        -0.1828036020
   H        -2.3184372049        -2.8780664796        -1.4707235558
   C         2.6458860429         0.0000000000         0.0000000000
   O         3.1777944684         0.0538150323         1.0323454236
   O         2.1139776175        -0.0538150323        -1.0323454236
