      36
best product-like step 345
   C        -2.5950000000         0.7690000000        -0.2190000000
   C        -3.8340000000         2.3990000000         1.0580000000
   H        -4.3810000000         2.2920000000         2.0000000000
   C        -4.6020000000         1.9910000000        -0.1860000000
   H        -5.6370000000         1.6860000000        -0.0040000000
   B        -1.2810000000        -0.1830000000        -0.4930000000
   N        -3.8390000000         0.8120000000        -0.8110000000
   N        -2.6340000000         1.4510000000         0.9550000000
   C        -3.7680000000         0.8070000000        -2.2950000000
   H        -4.3980000000        -0.0240000000        -2.6320000000
   H        -4.2400000000         1.7010000000        -2.7100000000
   H        -2.7420000000         0.6670000000        -2.6180000000
   C        -1.5570000000         1.8510000000         1.8530000000
   H        -0.7020000000         2.1370000000         1.2490000000
   H        -1.9030000000         2.6820000000         2.4670000000
   H        -1.2550000000         1.0370000000         2.5170000000
   N        -0.2740000000        -0.4460000000        -1.8870000000
   N         0.8800000000        -0.7100000000        -1.6840000000
   H        -4.6150000000         2.8350000000        -0.8790000000
   H        -3.4540000000         3.4240000000         0.9630000000
   C        -1.3730000000        -1.8920000000         0.0160000000
   C        -0.6420000000        -2.9150000000        -0.8930000000
   C        -2.7200000000        -2.3280000000         0.5440000000
   C        -0.4870000000        -1.8210000000         1.2160000000
   H        -2.7190000000        -3.3200000000         1.0010000000
   H        -2.9300000000        -1.6250000000         1.3630000000
   H        -3.5550000000        -2.2460000000        -0.1600000000
   H         0.5400000000        -1.6060000000         0.9010000000
   H        -0.7680000000        -0.9980000000         1.8840000000
   H        -0.4690000000        -2.7390000000         1.8040000000
   H         0.3760000000        -2.5460000000        -1.0240000000
   H        -0.5030000000        -3.8660000000        -0.3730000000
   H        -1.0060000000        -3.1090000000        -1.9070000000
   C         0.9930000000         0.4480000000        -0.2400000000
   O        -0.2130000000         0.6290000000        -0.1400000000
   O         1.7000000000         1.3960000000        -0.1690000000
