      36
final step 1000
   C        -3.0100000000        -0.4140000000         0.5920000000
   C        -3.2290000000         1.8310000000        -0.1400000000
   H        -4.1300000000         2.4270000000         0.0480000000
   C        -3.3570000000         0.8320000000        -1.3360000000
   H        -4.3020000000         0.8610000000        -1.8910000000
   B        -1.9690000000        -1.7650000000         1.6420000000
   N        -3.2340000000        -0.4620000000        -0.7220000000
   N        -2.9740000000         0.8470000000         1.0500000000
   C        -3.7160000000        -1.6390000000        -1.3690000000
   H        -4.1910000000        -2.3080000000        -0.6410000000
   H        -4.4350000000        -1.4160000000        -2.1690000000
   H        -2.8850000000        -2.1220000000        -1.8940000000
   C        -2.8260000000         1.0710000000         2.4910000000
   H        -2.6090000000         0.0640000000         2.8880000000
   H        -1.9620000000         1.7020000000         2.7400000000
   H        -3.7740000000         1.3290000000         2.9680000000
   N         1.0390000000         3.7300000000        -3.7620000000
   N         1.2670000000         4.7730000000        -4.1540000000
   H        -2.5300000000         0.9760000000        -2.0520000000
   H        -2.3380000000         2.4520000000        -0.2020000000
   C        -2.8460000000        -3.0480000000         2.1840000000
   C        -2.7300000000        -4.0950000000         1.1230000000
   C        -4.4060000000        -2.6700000000         2.1240000000
   C        -2.1000000000        -3.5480000000         3.4110000000
   H        -4.9830000000        -3.5740000000         2.3700000000
   H        -4.7360000000        -1.8720000000         2.7970000000
   H        -4.6420000000        -2.3740000000         1.0990000000
   H        -1.1150000000        -3.7540000000         2.9780000000
   H        -1.8960000000        -2.7640000000         4.1460000000
   H        -2.4510000000        -4.5170000000         3.7940000000
   H        -1.8870000000        -4.7760000000         1.2770000000
   H        -3.6440000000        -4.7050000000         1.1130000000
   H        -2.6100000000        -3.6460000000         0.1290000000
   C         3.9600000000         4.3830000000        -4.0680000000
   O        -0.9320000000        -1.1740000000         1.9050000000
   O         4.9780000000         3.9530000000        -4.1220000000
