      36
best TS-like step 112
   C        -2.3690000000         0.8790000000        -0.1560000000
   C        -4.3760000000         1.9370000000         0.5670000000
   H        -5.2760000000         1.2880000000         0.5830000000
   C        -3.9910000000         2.3950000000        -0.8370000000
   H        -4.8310000000         2.5080000000        -1.5320000000
   B        -1.2350000000        -0.1150000000        -0.1140000000
   N        -3.1010000000         1.2840000000        -1.2310000000
   N        -3.1560000000         1.1730000000         0.9220000000
   C        -2.8670000000         0.9820000000        -2.6100000000
   H        -2.0360000000         1.5450000000        -3.0720000000
   H        -2.6560000000        -0.0850000000        -2.7430000000
   H        -3.7960000000         1.1700000000        -3.1700000000
   C        -2.7520000000         1.0480000000         2.2900000000
   H        -1.8310000000         0.4750000000         2.3730000000
   H        -2.5470000000         2.0470000000         2.7280000000
   H        -3.5190000000         0.5450000000         2.9000000000
   N        -0.2920000000         0.1190000000        -1.1880000000
   N         0.0810000000         0.3110000000        -2.2800000000
   H        -3.4200000000         3.3500000000        -0.7850000000
   H        -4.5310000000         2.7770000000         1.2640000000
   C        -1.6100000000        -1.5660000000         0.6100000000
   C        -1.4900000000        -2.5720000000        -0.5680000000
   C        -3.1650000000        -1.6740000000         0.8400000000
   C        -0.8380000000        -2.1200000000         1.8740000000
   H        -3.4110000000        -2.7500000000         0.8310000000
   H        -3.5530000000        -1.2770000000         1.7790000000
   H        -3.7420000000        -1.2270000000         0.0160000000
   H         0.2460000000        -2.2070000000         1.7100000000
   H        -0.9810000000        -1.4950000000         2.7710000000
   H        -1.2310000000        -3.1320000000         2.1060000000
   H        -0.4670000000        -2.7300000000        -0.9320000000
   H        -1.9000000000        -3.5580000000        -0.2780000000
   H        -2.0920000000        -2.2220000000        -1.4260000000
   C         1.6570000000         0.1770000000        -0.4560000000
   O         0.8770000000         0.1470000000         0.4500000000
   O         2.4740000000         0.2270000000        -1.3150000000
