      36
best bond-forming step 288
   C        -2.6650000000         0.6880000000        -0.2540000000
   C        -3.9450000000         2.1690000000         1.0430000000
   H        -4.5030000000         1.5900000000         1.8000000000
   C        -4.6440000000         2.0910000000        -0.3170000000
   H        -5.6520000000         1.6510000000        -0.2720000000
   B        -1.1900000000        -0.2000000000        -0.4940000000
   N        -3.6980000000         1.1630000000        -1.0770000000
   N        -2.5810000000         1.5250000000         0.8360000000
   C        -3.6920000000         1.0100000000        -2.5750000000
   H        -3.4710000000        -0.0510000000        -2.7950000000
   H        -4.7320000000         1.1500000000        -2.9410000000
   H        -2.9470000000         1.6550000000        -3.1020000000
   C        -1.6390000000         1.6920000000         2.0210000000
   H        -0.5950000000         1.5930000000         1.7410000000
   H        -1.8280000000         2.7200000000         2.3730000000
   H        -1.8930000000         0.9920000000         2.8360000000
   N        -0.4490000000        -0.4920000000        -2.0030000000
   N         0.7240000000        -0.2960000000        -1.5960000000
   H        -4.7430000000         3.0930000000        -0.7780000000
   H        -3.8270000000         3.2000000000         1.4110000000
   C        -1.2850000000        -1.7680000000         0.2310000000
   C        -0.9750000000        -3.0220000000        -0.7250000000
   C        -2.7790000000        -2.3770000000         0.4960000000
   C        -0.3080000000        -1.7540000000         1.4560000000
   H        -2.6470000000        -3.3930000000         0.9240000000
   H        -3.4840000000        -1.8420000000         1.1540000000
   H        -3.2800000000        -2.5060000000        -0.4770000000
   H         0.6920000000        -1.4560000000         1.1190000000
   H        -0.5900000000        -1.0220000000         2.2290000000
   H        -0.1920000000        -2.7400000000         1.9570000000
   H        -0.0030000000        -3.0430000000        -1.2380000000
   H        -1.0210000000        -3.9500000000        -0.1170000000
   H        -1.7370000000        -3.1050000000        -1.5180000000
   C         1.0260000000         0.4290000000        -0.4320000000
   O        -0.2210000000         0.5480000000         0.2720000000
   O         2.1400000000         1.0250000000        -0.3140000000
