      36
best bond-forming step 16
   C        -2.8320000000         0.8080000000        -0.3090000000
   C        -4.3810000000         2.2940000000         0.4230000000
   H        -5.4370000000         1.9590000000         0.3510000000
   C        -3.8590000000         2.7390000000        -0.9410000000
   H        -4.6620000000         2.9680000000        -1.6550000000
   B        -1.9070000000        -0.3380000000        -0.3490000000
   N        -3.1260000000         1.6060000000        -1.3560000000
   N        -3.5240000000         1.2070000000         0.7780000000
   C        -2.8660000000         1.3650000000        -2.7370000000
   H        -1.8820000000         1.7560000000        -3.0620000000
   H        -2.8890000000         0.2810000000        -2.9390000000
   H        -3.6550000000         1.8220000000        -3.3500000000
   C        -3.1020000000         1.0550000000         2.1420000000
   H        -2.2220000000         0.4000000000         2.1860000000
   H        -2.8050000000         2.0250000000         2.5830000000
   H        -3.9000000000         0.6010000000         2.7590000000
   N        -0.9010000000        -0.0830000000        -1.2810000000
   N        -0.0270000000         0.1180000000        -2.0100000000
   H        -3.2070000000         3.6370000000        -0.8490000000
   H        -4.3200000000         3.0880000000         1.1800000000
   C        -1.9520000000        -1.7350000000         0.4050000000
   C        -1.6250000000        -2.7760000000        -0.6210000000
   C        -3.3460000000        -2.0660000000         0.9350000000
   C        -0.9190000000        -1.8450000000         1.5340000000
   H        -3.3580000000        -3.0970000000         1.3430000000
   H        -3.6590000000        -1.3980000000         1.7530000000
   H        -4.1230000000        -2.0170000000         0.1560000000
   H         0.1040000000        -1.6330000000         1.1670000000
   H        -1.1130000000        -1.1450000000         2.3650000000
   H        -0.9030000000        -2.8630000000         1.9690000000
   H        -0.6220000000        -2.6220000000        -1.0590000000
   H        -1.6200000000        -3.7760000000        -0.1490000000
   H        -2.3540000000        -2.7890000000        -1.4410000000
   C         2.5960000000         0.0570000000         0.0140000000
   O         3.1190000000         0.0930000000         1.0590000000
   O         2.0870000000         0.0210000000        -1.0360000000
