      36
best product-like step 1
   C        -2.8570000000         0.8430000000        -0.2970000000
   C        -4.4510000000         2.3850000000         0.4400000000
   H        -5.5040000000         2.0690000000         0.3780000000
   C        -3.9100000000         2.8350000000        -0.9190000000
   H        -4.7080000000         3.0590000000        -1.6400000000
   B        -1.9160000000        -0.3370000000        -0.3540000000
   N        -3.1540000000         1.6730000000        -1.3430000000
   N        -3.5880000000         1.2680000000         0.7860000000
   C        -2.8720000000         1.4190000000        -2.7300000000
   H        -1.8930000000         1.8080000000        -3.0530000000
   H        -2.8780000000         0.3350000000        -2.9030000000
   H        -3.6510000000         1.8860000000        -3.3500000000
   C        -3.1700000000         1.0990000000         2.1560000000
   H        -2.3020000000         0.4360000000         2.1880000000
   H        -2.8790000000         2.0670000000         2.6000000000
   H        -3.9690000000         0.6650000000         2.7750000000
   N        -0.8760000000        -0.1120000000        -1.3000000000
   N         0.0000000000         0.0660000000        -2.0040000000
   H        -3.2670000000         3.7270000000        -0.8370000000
   H        -4.3800000000         3.1740000000         1.2010000000
   C        -1.9230000000        -1.7780000000         0.3910000000
   C        -1.5860000000        -2.8620000000        -0.6480000000
   C        -3.3180000000        -2.1040000000         0.9490000000
   C        -0.8810000000        -1.8790000000         1.5210000000
   H        -3.3360000000        -3.1230000000         1.3690000000
   H        -3.6240000000        -1.4200000000         1.7490000000
   H        -4.0840000000        -2.0540000000         0.1610000000
   H         0.1300000000        -1.6660000000         1.1470000000
   H        -1.0820000000        -1.1730000000         2.3390000000
   H        -0.8670000000        -2.8900000000         1.9640000000
   H        -0.5920000000        -2.7100000000        -1.0930000000
   H        -1.5850000000        -3.8610000000        -0.1810000000
   H        -2.3210000000        -2.8710000000        -1.4690000000
   C         2.6420000000         0.0040000000         0.0000000000
   O         3.1730000000         0.0560000000         1.0320000000
   O         2.1120000000        -0.0490000000        -1.0310000000
