      36
final step 200
   C        -2.7870000000         0.6390000000        -0.3730000000
   C        -4.3150000000         2.2950000000         0.3870000000
   H        -5.3130000000         1.8190000000         0.5200000000
   C        -3.9840000000         2.5430000000        -1.1030000000
   H        -4.8690000000         2.7200000000        -1.7330000000
   B        -1.7620000000        -0.5690000000        -0.4660000000
   N        -3.2900000000         1.3030000000        -1.5080000000
   N        -3.2180000000         1.3530000000         0.7630000000
   C        -3.4750000000         0.8520000000        -2.9160000000
   H        -2.9500000000         1.5540000000        -3.5950000000
   H        -3.0710000000        -0.1510000000        -3.0760000000
   H        -4.5530000000         0.8380000000        -3.1850000000
   C        -2.6170000000         1.4550000000         2.1150000000
   H        -1.7000000000         0.8670000000         2.1920000000
   H        -2.3460000000         2.5080000000         2.3470000000
   H        -3.3190000000         1.0850000000         2.8870000000
   N        -0.8610000000        -0.1110000000        -1.4800000000
   N        -0.1230000000         0.2240000000        -2.2940000000
   H        -3.3080000000         3.4230000000        -1.2100000000
   H        -4.2850000000         3.2180000000         0.9850000000
   C        -1.7980000000        -2.0660000000         0.3940000000
   C        -1.4620000000        -3.3440000000        -0.5190000000
   C        -3.2890000000        -2.0110000000         0.8270000000
   C        -0.9170000000        -2.2480000000         1.6900000000
   H        -3.5980000000        -2.9150000000         1.3950000000
   H        -3.4930000000        -1.1340000000         1.4490000000
   H        -3.9440000000        -1.9450000000        -0.0620000000
   H         0.1330000000        -2.4270000000         1.4100000000
   H        -0.9510000000        -1.4080000000         2.3990000000
   H        -1.2850000000        -3.1470000000         2.2340000000
   H        -0.3800000000        -3.3930000000        -0.7090000000
   H        -1.7450000000        -4.2870000000        -0.0050000000
   H        -1.9550000000        -3.3230000000        -1.5090000000
   C         2.4750000000         0.6820000000         0.3470000000
   O         2.2310000000         0.5280000000         1.4800000000
   O         2.7320000000         0.8430000000        -0.7770000000
