      36
final step 200
   C        -2.8910000000         0.8420000000        -0.3000000000
   C        -4.4630000000         2.4140000000         0.4510000000
   H        -5.5090000000         2.0730000000         0.3860000000
   C        -3.9250000000         2.8550000000        -0.9210000000
   H        -4.7280000000         3.1130000000        -1.6210000000
   B        -1.9230000000        -0.3550000000        -0.3580000000
   N        -3.2190000000         1.6530000000        -1.3590000000
   N        -3.5680000000         1.3040000000         0.8050000000
   C        -2.9020000000         1.4250000000        -2.7530000000
   H        -1.9280000000         1.8440000000        -3.0490000000
   H        -2.8850000000         0.3500000000        -2.9610000000
   H        -3.6900000000         1.8750000000        -3.3660000000
   C        -3.1680000000         1.1120000000         2.1840000000
   H        -2.3140000000         0.4340000000         2.2270000000
   H        -2.8580000000         2.0700000000         2.6290000000
   H        -3.9840000000         0.6830000000         2.7840000000
   N        -0.9410000000        -0.1190000000        -1.3490000000
   N        -0.1800000000         0.0700000000        -2.1930000000
   H        -3.2450000000         3.7200000000        -0.8340000000
   H        -4.4070000000         3.2150000000         1.1980000000
   C        -1.9200000000        -1.7950000000         0.3930000000
   C        -1.5640000000        -2.8810000000        -0.6500000000
   C        -3.3220000000        -2.1110000000         0.9500000000
   C        -0.8720000000        -1.8780000000         1.5240000000
   H        -3.3400000000        -3.1280000000         1.3690000000
   H        -3.6240000000        -1.4270000000         1.7490000000
   H        -4.0870000000        -2.0600000000         0.1640000000
   H         0.1380000000        -1.6690000000         1.1480000000
   H        -1.0670000000        -1.1720000000         2.3420000000
   H        -0.8600000000        -2.8890000000         1.9630000000
   H        -0.5660000000        -2.7260000000        -1.0780000000
   H        -1.5710000000        -3.8760000000        -0.1800000000
   H        -2.2870000000        -2.8990000000        -1.4770000000
   C         2.7590000000        -0.0230000000         0.0610000000
   O         3.1170000000         0.0330000000         1.1830000000
   O         2.4170000000        -0.0800000000        -1.0570000000
