      36
final step 1000
   C        -2.5620000000         0.3290000000         0.0210000000
   C        -3.7870000000         1.4440000000         1.7400000000
   H        -4.4080000000         0.7870000000         2.3540000000
   C        -4.4500000000         1.7550000000         0.3800000000
   H        -5.5170000000         1.5120000000         0.3620000000
   B        -1.5270000000        -0.6440000000        -0.6700000000
   N        -3.7180000000         0.8730000000        -0.5710000000
   N        -2.5270000000         0.7330000000         1.4100000000
   C        -4.4790000000         0.1160000000        -1.6270000000
   H        -5.5010000000         0.5150000000        -1.6220000000
   H        -4.1020000000         0.2160000000        -2.6550000000
   H        -4.4950000000        -0.9450000000        -1.3310000000
   C        -1.3390000000         1.3360000000         2.0830000000
   H        -0.8310000000         0.6630000000         2.7740000000
   H        -0.6510000000         1.6620000000         1.3060000000
   H        -1.6310000000         2.2400000000         2.6360000000
   N        -1.2630000000        -0.5270000000        -2.1200000000
   N        -0.7730000000        -0.1960000000        -3.1200000000
   H        -4.3370000000         2.7950000000         0.0600000000
   H        -3.5910000000         2.3570000000         2.3050000000
   C        -0.6920000000        -1.8970000000         0.1920000000
   C         0.4320000000        -2.5310000000        -0.6760000000
   C        -1.8990000000        -2.8970000000         0.6370000000
   C         0.0710000000        -1.4810000000         1.5420000000
   H        -1.5420000000        -3.6720000000         1.3230000000
   H        -2.7260000000        -2.3460000000         1.0990000000
   H        -2.3160000000        -3.4280000000        -0.2290000000
   H         0.7320000000        -0.6150000000         1.4240000000
   H        -0.6220000000        -1.2680000000         2.3650000000
   H         0.7030000000        -2.3250000000         1.8480000000
   H         1.2970000000        -1.8560000000        -0.7290000000
   H         0.7860000000        -3.4610000000        -0.2080000000
   H         0.1380000000        -2.7730000000        -1.7020000000
   C         0.6770000000         1.8560000000        -0.9130000000
   O        -0.2430000000         2.5460000000        -0.6960000000
   O         1.7280000000         1.3440000000        -1.0090000000
