      36
best TS-like step 167
   C        -2.6050000000         0.8280000000        -0.1750000000
   C        -4.3950000000         2.0010000000         0.6360000000
   H        -5.1690000000         1.2250000000         0.7080000000
   C        -4.1940000000         2.4170000000        -0.8150000000
   H        -5.1400000000         2.3630000000        -1.3630000000
   B        -1.4320000000        -0.2360000000        -0.2170000000
   N        -3.2440000000         1.3920000000        -1.2680000000
   N        -3.0950000000         1.4380000000         0.9580000000
   C        -3.2440000000         1.0100000000        -2.6830000000
   H        -2.5730000000         1.6180000000        -3.2890000000
   H        -2.9350000000        -0.0350000000        -2.7860000000
   H        -4.2700000000         1.0690000000        -3.0510000000
   C        -2.6260000000         1.2900000000         2.3400000000
   H        -1.6180000000         0.8550000000         2.3220000000
   H        -2.5510000000         2.2780000000         2.7920000000
   H        -3.2670000000         0.6430000000         2.9480000000
   N        -0.6800000000         0.0380000000        -1.4030000000
   N        -0.0170000000         0.2970000000        -2.3060000000
   H        -3.7710000000         3.4200000000        -0.9100000000
   H        -4.6710000000         2.8410000000         1.2720000000
   C        -1.5390000000        -1.7920000000         0.4710000000
   C        -1.3050000000        -2.9480000000        -0.5130000000
   C        -3.0180000000        -1.7950000000         0.8670000000
   C        -0.8420000000        -2.3060000000         1.7620000000
   H        -3.3570000000        -2.7860000000         1.1800000000
   H        -3.1710000000        -1.1260000000         1.7210000000
   H        -3.6820000000        -1.4590000000         0.0690000000
   H         0.2450000000        -2.4100000000         1.6990000000
   H        -1.0700000000        -1.6720000000         2.6230000000
   H        -1.2570000000        -3.2940000000         1.9730000000
   H        -0.2440000000        -3.0760000000        -0.7600000000
   H        -1.6570000000        -3.8740000000        -0.0490000000
   H        -1.8620000000        -2.8350000000        -1.4430000000
   C         1.9730000000         0.3220000000        -0.3290000000
   O         1.2920000000         0.2560000000         0.6260000000
   O         2.7090000000         0.3810000000        -1.2470000000
