      36
best bond-forming step 229
   C        -2.5160000000         0.8340000000        -0.1390000000
   C        -4.2690000000         2.0550000000         0.7690000000
   H        -5.0020000000         1.3010000000         1.1290000000
   C        -4.3050000000         2.2330000000        -0.7280000000
   H        -5.2610000000         1.9480000000        -1.1790000000
   B        -1.5820000000        -0.4420000000        -0.2970000000
   N        -3.2550000000         1.3240000000        -1.1800000000
   N        -2.9050000000         1.5900000000         0.9590000000
   C        -3.3020000000         0.8950000000        -2.5430000000
   H        -2.9410000000         1.6680000000        -3.2260000000
   H        -2.6870000000         0.0060000000        -2.6550000000
   H        -4.3350000000         0.6440000000        -2.7950000000
   C        -2.4340000000         1.5050000000         2.3210000000
   H        -1.3980000000         1.1420000000         2.3150000000
   H        -2.4600000000         2.5140000000         2.7450000000
   H        -3.0520000000         0.8400000000         2.9420000000
   N        -0.7710000000        -0.1220000000        -1.4280000000
   N         0.0790000000         0.2600000000        -2.1230000000
   H        -4.0870000000         3.2780000000        -1.0150000000
   H        -4.4430000000         2.9850000000         1.3140000000
   C        -1.5370000000        -1.9010000000         0.4290000000
   C        -1.0290000000        -2.9120000000        -0.6540000000
   C        -3.0300000000        -1.9920000000         0.8850000000
   C        -0.6260000000        -2.1700000000         1.6760000000
   H        -3.2530000000        -2.8710000000         1.5020000000
   H        -3.2490000000        -1.1150000000         1.5060000000
   H        -3.7290000000        -1.9670000000         0.0460000000
   H         0.4180000000        -2.3040000000         1.3850000000
   H        -0.6590000000        -1.3660000000         2.4180000000
   H        -0.9690000000        -3.0960000000         2.1600000000
   H         0.0570000000        -2.8030000000        -0.7470000000
   H        -1.2340000000        -3.9590000000        -0.3900000000
   H        -1.4610000000        -2.7090000000        -1.6380000000
   C         1.6800000000         0.4400000000        -0.5090000000
   O         0.6630000000         0.3680000000         0.0930000000
   O         2.8170000000         0.5130000000        -0.8490000000
